ITEM: TIMESTEP
0
ITEM: NUMBER OF ATOMS
36828
ITEM: BOX BOUNDS pp pp pp
1.7648362809 182.4180641191
0.565117634 59.617782766
0.565117634 59.617782766
ITEM: ATOMS id type x y z vx vy vz
617 1 3.5006330595 2.570482558 4.2675021386 5.5340226195 2.3030812706 2.3842723465
970 2 3.7103754416 3.0840530532 1.6961849718 -1.8134699898 0.8217997489 1.268799173
3677 2 6.2359897705 1.929826193 3.2064400203 1.4041441355 1.9240968169 -0.3504682166
5279 2 5.5042467047 3.8008665384 5.4020518286 2.1708889868 2.7792786517 -1.7471376385
11064 1 2.5391351921 5.1642764984 4.8612787746 0.4493759357 3.5764818152 -2.9418976783
2711 1 4.988225335 1.0752279699 0.6136408651 -0.7826394537 -0.2114842875 1.3710030472
351 2 5.8214802803 5.603206474 0.8808245172 -0.8772979323 0.5123525157 -0.515226171
11591 1 6.8299200106 4.4888741399 2.939251503 -4.057125267 -2.4604344109 3.0074448721
337 1 11.0587266512 4.2497433679 4.4601207513 -0.6953680995 -1.3298173144 -2.1107672794
2120 1 10.3095080698 1.7745688785 3.2694708816 0.767612547 0.816827434 1.0585485409
2996 2 9.2096200598 4.2717549992 1.9318973064 -1.3432209717 0.6561950827 -1.0526746528
5207 1 8.6533940995 1.6941143141 1.630750028 0.9458798894 -2.1940997168 0.8617576758
11039 2 8.6024614549 3.2927025404 4.6759809581 1.5783951489 1.6357266689 -0.7525185807
1569 1 6.9011712712 3.0937045999 0.9009452491 -2.4040551211 -3.9522560741 0.9232616117
4106 1 14.4528187971 4.7298353112 0.85523946 3.7996952557 0.3338166321 0.8805239921
4551 2 12.9463971626 2.3085340151 4.9657853188 -2.8446599588 -0.1616519514 -1.0847735769
4660 2 15.1337901197 3.8680815363 3.2564231398 1.2514806646 0.1829336172 -2.1648593236
5098 2 12.226022969 3.0161326615 1.9504722618 -0.8335378007 -1.4506920586 -0.8894128894
8293 1 15.6382913796 1.3597406721 3.5648123687 0.7647486387 -0.8096727504 -0.035615292
5636 1 12.9517929727 5.5197939886 3.1655091419 -2.7405422941 -2.5532370201 -2.6281797155
7471 1 11.6150469725 5.5206211479 0.8567588492 -0.5051803669 2.7804776907 0.3250405407
5320 1 16.7232826626 2.9080034243 1.4057733705 1.9939348056 -3.2106906872 0.8134635404
733 2 20.7565502503 2.1843644952 2.9840544584 1.7301540253 0.1483465995 0.1446816858
899 1 19.9133462491 4.8657763 2.2904976313 0.7399111598 -2.8362463993 0.9790381306
4241 1 17.8506820522 0.9166730538 5.0033381126 1.5723665654 1.0536499151 2.2794714084
9868 2 18.0061316864 3.2975791892 3.6689128571 -1.2851204813 3.6531879249 -1.4501770503
10846 1 19.1223418614 3.0498505299 0.7688482324 0.8057785574 -0.8214408048 1.02470657
859 2 20.5518013806 4.5731510125 5.000339664 2.116588301 0.5327607404 -0.6445149275
4502 1 16.4816295266 5.0737093037 5.273024809 0.5606747268 0.0943797276 2.1681162018
3046 2 17.2212465673 5.4576580144 1.3014299575 0.2148829416 0.3781246535 -2.0226504504
59 1 22.3778843338 4.2808871356 2.6602076404 3.0464793404 2.0331284009 3.0367858877
512 1 22.1308165444 2.1044281808 0.8859079687 3.7665755407 -1.0087234387 -0.1844410741
1146 2 24.4191904688 3.5168105944 0.8814432984 -0.3514331776 -0.3938976314 0.6777042344
4036 1 23.6001727629 1.6071448733 2.7087208047 2.771236404 1.2735828286 -2.0247135221
8300 2 24.7844327955 3.6477715247 3.9718465567 -0.6063700135 -1.6707956633 -1.66675314
5961 1 22.4529643995 2.9225230308 5.2245693107 5.1619637027 -1.2140042985 2.3825358481
10769 1 26.1597344283 1.7357492814 2.3107402613 -2.8170483238 -1.7605603704 1.2331914485
1826 2 28.1983345109 2.2548930761 3.8323567188 2.2657274315 1.6060142025 -0.016704534
3029 1 29.4027001459 4.8505609247 3.2694812793 7.4373796248 -0.0274684394 -0.7456956746
4384 2 29.3476092942 3.0629520285 0.9904084472 1.2412591217 1.0872008628 1.5361234503
10237 2 26.9424507052 4.5328589309 2.3905557884 1.1090210692 1.7224721347 -0.1243427798
8177 1 27.4527188112 4.7404810422 5.0358278325 -1.6658193046 -0.3792224837 2.0027883366
11145 1 30.4120899109 0.9770699991 5.1798297396 -2.3276291811 3.8660706688 3.9554535916
2359 2 31.2411611444 2.8478153097 3.3426885995 -0.1606591209 3.4094296611 1.9576998129
2521 2 34.5682203025 3.1954336351 3.5851090856 2.3622644086 -1.4124452724 -0.7742389823
5748 2 33.1074065572 0.8751782652 4.8508952284 0.177988573 1.1922801066 -1.5942823508
5868 1 33.2141924049 2.539080078 1.5219129492 0.9998402974 0.9379692906 0.4989298692
655 1 34.322821444 4.7682955221 1.5407242851 -3.7706856846 -4.4739349024 3.5287508605
2257 2 31.7052323139 5.1683563807 1.0485422872 0.2367893874 0.0509514315 -1.0418320764
8041 2 32.751589893 5.414960228 4.4733896373 0.2026035505 -0.8157748349 2.6578408108
2591 2 36.2365201471 2.5419195639 1.0924173362 -1.7274664251 0.4628415715 -0.6851275505
8541 1 37.4244519469 3.4759210134 4.1901908131 -0.3422167804 1.0709960468 -2.1309378415
10126 1 39.3053149348 3.4350945261 1.0120578542 0.9282450583 0.125735102 -1.608810939
10128 2 38.4794456801 1.4816669088 2.8611516125 0.045461308 0.3999046883 -0.9760860834
1199 2 39.6246007733 5.1625289998 2.9582822272 -1.5097767311 1.0054159433 -0.4152444329
5313 1 37.2482947471 4.8463208351 1.4553103136 0.1151856433 0.9271268479 0.5038941293
1212 2 36.2707183775 1.1333962474 5.1125611182 -0.5996972201 -0.6055246856 -1.440379929
5998 2 40.4393578665 0.6794991529 1.0317014894 -1.451450957 -0.6964965568 -2.4006330821
9449 2 40.5962246672 2.9697763665 4.9832478902 1.8115992093 1.1554414288 0.9312818233
6480 2 42.0645482637 3.4340201015 2.0262193327 0.5546966574 -0.8887900414 0.2750389578
6856 1 42.7684573262 4.6664300697 4.6900031536 0.47312297 -1.7208222208 1.3474961985
7669 1 44.5497898371 4.8468933554 2.8392332904 -1.2142975866 0.6249239314 -2.3445833931
10678 2 44.0171071619 2.245495949 3.7815489309 1.4962167129 -4.0751617185 3.69050143
11539 1 41.3214272794 0.9844086066 3.4298307545 -0.7183756942 -3.1760056033 -3.5977819259
1476 1 42.4131148299 0.6682852832 5.5783309134 1.3579696658 -0.1316936755 1.7747034864
4988 2 45.2628353906 3.064398801 0.7848200052 0.2308343772 2.3761279857 0.079101306
3571 2 47.0383664716 3.5710555267 3.4515240503 2.9763243513 -2.2962457285 2.446032025
8795 1 48.0558751865 0.8607028952 4.364801288 -0.0616011196 1.3149438757 0.8801795291
9140 1 48.6417025188 3.5193999434 1.2987711381 2.2705261794 0.5983031844 1.3047454079
11489 2 46.5023894503 0.7347060675 2.2166685856 2.5093451182 -0.7781239133 0.8177637495
5068 1 48.2191456843 5.3544823789 5.2489956909 2.4501840924 2.9579488168 -1.9722430853
6583 1 46.0066925601 1.7045750394 5.4972495038 -0.3500108507 -0.2959444637 3.0953711894
5805 2 50.152890184 2.7380374311 3.8590224736 1.5031169536 0.4100886538 -0.1527204372
1876 1 51.9684232393 1.5617566387 1.1574868928 4.6450775521 3.5454917408 -0.1260622081
2603 2 51.3325955187 4.233666649 1.3365917907 1.4560744045 -1.3305248591 0.3865558384
6727 2 53.5539269543 2.7350677651 2.8659954534 -0.896115961 1.0033017824 0.4062494246
9493 1 52.1978237722 4.5998296051 4.0710203025 -0.0082982332 -2.0274586768 -1.7873777304
5690 2 54.3042640577 5.3664310675 1.1349601467 3.3964167135 -2.9079882226 -1.8331714844
6977 2 54.9783701079 1.3497352493 5.0610794532 1.914145966 -3.0981317957 0.8334359116
8249 2 55.4270043417 0.815171498 1.3701969805 0.9345361706 -2.6488327885 0.0616533205
8610 2 56.59861934 3.317262745 2.7982156361 1.9967021207 -2.1749734695 1.0634817762
8768 2 58.9117641864 1.542914382 1.145673515 1.743782391 0.0511309657 2.2419521453
8636 2 59.3182930479 4.774594376 1.3020204722 -1.6179577896 0.2478607795 -1.5625883121
9851 2 58.8863197432 5.1527195634 4.517351352 -0.9067064336 -1.7853444772 1.9876340554
5558 1 58.2337459718 2.3840848869 4.433143473 -4.2217940672 -1.1590888051 -1.8820726896
5169 2 60.6039120951 2.7642201601 3.3354625291 -0.5404652112 -1.9679765838 1.0032285077
20510 1 61.7508347406 1.3306207472 1.3958482438 1.6216756885 1.3523265055 0.5891488315
19906 2 62.9583921674 0.7732558594 3.8328717057 0.1673736799 -2.6235033424 1.7296788951
20656 2 62.5789628444 4.4126275161 1.6421748553 4.262225387 1.2149635485 -0.7337071598
23298 1 64.2837920746 2.2102976867 1.7254381437 1.6568290303 7.3847912348 -0.3271131585
8787 2 59.9528962191 0.6589811175 5.4261191944 -1.1779107073 -2.0735246207 1.1785235864
17820 2 64.7508323783 3.5115706116 4.1877757871 1.3205005924 0.5469754778 3.3746461449
16767 2 69.315400294 3.2243251299 2.1665728212 1.1527779825 -0.5371959206 -4.4731088486
20044 1 66.6390945309 3.1605029705 2.4804097172 0.6107404519 -1.8092214726 -1.6766924306
21715 1 67.1586911468 4.8960733353 4.2783775944 1.8698229368 -1.9580158237 -1.4428121477
21086 1 65.4434904226 1.2707922732 5.2544026311 -0.555611905 0.2931773455 0.2599517392
18637 1 67.8920473959 2.0536340826 4.4801131144 -0.7345314068 -1.9919175364 -0.2698425801
11969 1 67.611493803 5.2955107958 1.6766264962 1.1075086564 -2.8482975496 2.1368530593
20390 2 69.5005738814 4.1116025293 5.3121913659 -0.3796196417 -2.3017191057 -0.3827727236
15207 1 71.6784214749 2.0169506723 2.5100439625 2.1055344259 -1.555999674 2.5463501492
20040 1 71.655256669 4.615685968 2.5862472585 -0.2083425558 -0.6934499177 0.5686077271
14307 2 73.2066857876 3.5521908562 59.6089377392 0.0584923267 0.7593234397 4.2760113518
17807 2 71.2100138267 0.6795440786 5.1450948458 1.2524991637 2.007824973 0.1135963377
19240 2 72.5699436396 3.3981885667 4.6071408665 0.0290644303 -1.5293108522 -0.3508195537
22994 2 74.5954640101 1.8012173445 2.7240813616 3.1057135825 0.5765109328 -3.1285389275
14235 2 75.0248678528 5.0935987646 3.024620035 -1.1267673689 0.37588853 0.8831754306
18368 1 77.0348143488 3.0072784356 3.1870731427 -1.5384861413 -3.8631531007 1.5426119823
11859 2 77.7814545778 0.7742556865 1.2892388762 -3.4025552486 -0.6050547902 2.9040470833
14606 2 79.5070914613 3.8178568617 1.8658482133 -0.8708633692 -0.0186405792 -0.2848825047
11912 1 77.9108244552 5.3933951765 3.060865736 1.0265616642 8.997719243e-04 1.7336447389
15840 2 78.7371302432 3.1905227779 5.2524219796 -2.1616074811 0.3338676646 -0.6508944206
12357 1 81.0317108471 1.3363872446 0.9372725533 -1.365957758 1.6765859541 -4.0002414653
12529 1 80.296474452 1.3239463983 3.4128769072 0.3280456473 2.0436080584 -2.4559741222
12931 2 82.9038907042 1.6973915671 3.3286151776 -1.7632996939 -0.9788941252 -0.9131112671
17567 2 82.1308302367 4.8110378681 2.8122071138 -0.4187438912 -0.1668184734 0.9263361363
15609 1 83.6022698113 3.9041971711 5.1706267363 3.220448364 -1.4587773731 -0.423316084
23292 1 81.290657023 3.2771058536 4.8310897489 -1.7408624564 2.4498552971 1.9864000304
14820 1 87.079785112 1.8501313502 2.4739257794 -4.3836246292 -2.7075757479 -1.3251499665
16365 2 85.2107865368 0.6778155424 0.9896782207 -0.0504494036 -1.0577454424 -3.5391309171
16817 2 85.0438733155 3.8106011261 2.4381268937 -0.2834906705 2.4096950401 -2.7575028554
13043 1 88.1579734533 4.2693622835 2.3277948956 0.4550147546 -0.1264975408 -0.4019739375
14837 2 88.9981890393 2.3598731811 4.2654372801 2.2024497292 -1.4792983705 1.2659881664
16978 2 85.8895953647 2.3785222263 5.1577503732 -2.5630780409 0.152867192 0.2890111411
17070 2 90.4939770347 5.115962942 1.6211605697 -2.5615916555 -0.9739433174 1.2581247555
18773 1 91.6825155043 3.2366191835 3.5322641392 1.7080947395 2.5410479673 -0.8255890834
21652 2 90.0521248175 2.0235663319 1.3012455894 -0.8110585805 -1.3640992045 -1.6258369819
19680 2 92.3700394859 0.9384945897 4.8038945832 -2.1632945965 0.753878056 -2.5368390526
20043 1 92.7636788687 1.1079976811 1.948431205 3.7618123118 2.2000474055 -1.1437167795
20089 1 92.6892343151 3.5781806418 1.1620448493 -0.6348040175 -0.8879361373 -4.7676494065
16794 2 90.420045647 5.2385295704 4.6903294908 -3.4479402785 1.116534063 1.4574544707
12965 2 94.482585906 3.2106118262 3.1479421478 -0.2862809055 2.6285653844 -0.6621677137
19275 1 92.8013826245 3.8788882091 5.6383268217 -0.2667630703 -1.4601053601 0.8334985401
18764 1 96.7337588047 1.8029934504 4.3199065529 -3.2636698473 -1.2955925385 -1.4826777176
22525 1 95.0532009818 4.4291837633 0.5891595311 1.1672429112 1.0160514156 3.346225813
13247 1 96.7932905635 2.6147967293 1.8714391978 -2.7264587396 -0.3313936013 1.6447348095
19211 1 97.8779553409 3.9569656169 3.6570424566 -0.0849776969 0.6896742449 3.517872835
16659 2 95.2831466799 5.2781484983 5.3541460793 0.6890808362 0.1801640464 -0.8226183566
20880 1 95.0520496408 0.6007654552 2.858771924 0.4117902839 -1.5202140984 -1.8405021837
11842 2 99.5385129479 2.7566844268 1.4565283256 2.2049189564 -0.0163242826 -1.8457081789
12603 1 100.0200537585 4.6385756954 4.4765216469 2.1452230525 2.913517787 3.616123245
17204 1 99.2678150263 1.9597908342 4.3733840733 -4.9474915248 -1.4094386805 -1.7385363957
17409 1 103.5172900676 0.9929570388 3.1979807497 -2.1105137255 -0.5044516059 0.143108535
18910 1 103.2724048809 4.7606796722 1.0298359425 0.7464181808 0.1267844432 -1.2233262946
19099 2 102.4154623203 1.9102230271 0.6538337375 -0.5608596923 -2.2529410472 0.5696728105
21460 2 102.0621193116 3.348716797 3.4089901864 -1.368812109 1.1160309747 2.8135870203
17331 2 99.8959124439 5.649088603 1.8875776059 -0.8301777274 0.1629605436 -0.0828346825
16521 1 100.8759235782 59.5023162902 2.5106959862 -0.7530097215 -2.1531869121 0.742021301
11982 1 105.9485302879 2.2201657481 4.5616173962 2.4574450309 -0.8986607001 -0.8978899897
12534 1 104.681437054 3.2903496022 2.6022056151 -0.6914778312 0.9417083102 0.299814903
14104 2 105.0888430276 5.5598712544 4.4261506506 -1.4688165036 -2.6661978826 -1.6836759808
13492 2 108.6816505491 1.5744110425 3.5097776192 3.0155098449 -4.3595754533 0.6322728468
15033 2 107.8343002528 4.4681046561 4.3015201509 0.2705839657 0.265006566 0.330409538
18915 1 107.212959206 2.8979816831 1.7876189422 -1.3365064166 -0.9553074866 -3.2091193612
15339 2 106.3082767687 5.2825150323 1.5124811956 -0.3548325274 1.2875731859 0.1076760565
16181 2 105.7144531168 0.7683259924 1.8207520944 1.3229240626 1.518904708 1.2709271982
13219 1 111.2833155933 4.0154023403 3.599219479 0.1511793921 0.3233649689 -0.2727412951
13831 2 110.2860410418 1.5590229591 0.8215264095 -2.4861091623 -0.9307406004 -2.4193724355
19231 2 109.5042694523 4.4622359069 1.8276708856 -0.2538231965 0.7951391184 0.806590754
17083 1 112.1326771867 3.531781376 1.076598333 -2.2876806611 -1.3249131379 4.6700639731
18734 2 112.1010347937 1.5098879329 3.7888542619 -1.079713239 2.5504151517 -0.5336898659
16522 1 110.1666314286 2.8384968946 5.2095345204 0.9483968522 -1.395932872 -0.1473575116
12164 2 114.3859444571 1.7164686453 1.5050279046 -0.3634970424 -0.9804347352 1.4175780877
23000 2 113.9550435786 4.112758593 3.4095345 1.1917682989 -0.7542610401 -2.6813418458
13920 1 114.7881381539 1.4289230219 4.1756411674 -2.0814847356 0.9271462927 1.0304933615
12446 1 115.9894609225 4.0247689722 1.1293415497 -1.2863822702 -0.9678746171 3.0820222302
18244 2 117.1641176527 1.5283895556 1.314801904 1.3708523759 -1.024849759 -1.0371330664
21587 2 117.0202797573 2.9620143312 4.0257821042 -1.8191515944 2.0904407639 1.5324665867
19185 1 118.2050530669 4.3881176343 2.1366495023 -2.1767771229 2.8181408444 -1.6184486682
19216 1 115.5355301975 5.2417514283 5.3698923237 -2.7313176335 0.4420632069 0.374261574
13059 1 119.9311804004 4.1050302271 4.4935230514 -3.8388608173 -1.1421992171 0.8562551519
18388 2 120.2297062458 2.6337947085 1.8877352578 0.2104660245 -1.9340629761 3.8733191737
18933 1 121.257775082 3.0237031518 6.1800730742 0.7033442461 0.6231275659 -1.8276206553
36800 2 122.8004219592 4.4307433593 2.0328747074 1.5960315857 -1.8334287479 -0.0606105771
24166 2 122.8687726926 1.760017523 3.8274577488 -2.3898796288 -1.3948565236 0.5250597121
13672 2 119.4939848524 1.2809356695 4.4202354305 -3.0477275901 -1.8714793203 -0.574806476
25007 1 124.5379003719 4.2085887495 4.2055806442 0.0181336615 1.0768046821 0.735619192
31798 1 124.1572467687 1.2006455804 1.2135764215 4.3587043611 -0.8266905294 0.3815821802
24439 1 125.5778144864 2.6145467831 2.626934293 -3.2719781181 1.2546350466 0.3197194335
25716 2 127.4413158087 4.521057159 3.7784685345 -0.7118987301 2.4794747102 -1.93539964
28339 1 126.5585734771 1.0758840883 0.8531751071 0.5470544411 -0.19313055 1.1988705386
28551 1 125.6064550167 5.2567221352 1.9546396508 -0.8417879554 2.759225707 0.9471168417
31405 1 127.3793581594 3.5422032023 1.2635602962 -0.7316095394 -3.3543951095 1.2580375945
35059 1 127.7117665803 1.657632792 3.177640642 -3.7041221687 -0.4527158764 1.4702820391
34447 1 126.3422319584 2.5163527513 5.193766719 -1.4368186701 -4.397854493 -3.2169158527
26432 2 129.407946467 2.8782920577 5.4689882922 1.638246829 -1.0036244016 -0.17582898
27013 2 129.9615956308 2.5688481387 2.1543654521 -3.5994579605 -2.2470778494 -1.5742369552
27182 2 133.3597599394 3.7477815956 5.5817145247 -1.3245360403 0.189282645 0.7643978217
28689 2 132.6928680803 4.4918584096 2.5001232987 -1.5938458023 -1.0404119863 -0.6217453344
30746 1 130.196088058 4.9404164178 3.5662895069 -2.3782055855 0.143278256 -1.9134402554
31143 1 131.5695256581 1.8575121439 4.3530498787 0.4100827723 0.3390087398 0.6380488816
30108 1 133.8670835409 1.3908991305 3.9398448459 -1.6487090874 1.0979597631 1.9818568568
24631 2 137.9879629176 3.4556477232 4.7543254633 -2.553992623 1.2072706754 -3.1705684681
24809 2 137.6736822173 3.4368985686 1.6301908565 -0.9068383331 -1.4408390933 -2.1319592236
26686 2 134.8419393884 2.4084701069 1.5249947656 -1.7486339727 2.1608358969 0.3618799076
32138 1 136.3375394089 1.1621025292 3.6839003196 -0.5830808146 2.9028371768 -3.373244687
33064 1 135.2665329308 3.632900614 3.7765022353 0.3116158875 -4.03339064 2.6644809419
34398 1 135.5907017519 5.2235533337 1.7585924642 -3.0445944589 -2.0698294139 0.1524169616
34364 1 138.5982955481 1.2152189666 3.0374163036 -2.2039444803 1.664456806 -2.9167263861
23797 1 140.1468466834 2.8967948089 2.6108965693 1.0932499617 -3.5516754913 -0.6612384671
25689 1 142.1531935742 1.5278432249 1.5601106985 -3.2181870576 -4.1111931826 -0.4722849372
27906 2 142.6587531801 4.1720851571 1.6730319028 -1.0182208494 0.0593919321 1.8720630909
28817 1 140.1123418663 5.1652215426 1.2300722489 -1.1149188734 0.5716056433 -0.2923147237
29967 2 140.3800387653 5.2422600713 4.0202204211 -1.2856243598 2.8818859092 1.1362240168
30348 1 140.2189089656 1.8667671378 5.1868446993 -1.5826182715 -0.4111536187 -0.074319407
33291 2 142.4315320593 2.6230641228 4.2411507364 -3.9126740231 -1.099946472 -0.8537196841
24883 1 144.9242007036 1.575624092 4.9221402146 -1.6811572938 0.3946645865 1.3329631747
25657 2 144.8745897774 4.2194470437 4.129905559 -0.0021480984 1.3892132761 1.3904261436
29112 1 144.5007679248 2.0094406457 2.2726646211 -0.922181004 -1.4282421524 1.9907598015
32611 1 145.6223960985 3.9916286547 1.5047437014 -0.947836528 -1.5023180962 1.7697479366
33772 1 146.9632975204 2.764434439 3.1135837842 1.2884639253 1.5241834517 -0.0651819594
35135 1 147.1522202468 4.239279453 5.3066357942 0.690023987 -3.7147690212 -1.6493433126
30983 2 146.7205314592 1.3694101002 0.622026292 -0.8355469738 -0.0205929553 -0.5723989719
28603 2 148.09260727 4.396012469 59.6081674711 -0.7071710292 -1.2184718347 -0.6195173137
23633 2 149.5117054085 4.1246777868 3.3723363517 1.4746103442 -0.2171817809 -1.401261813
26817 1 149.1265490026 2.1633103652 1.330389716 2.1555484114 0.449677736 -1.1005363209
27260 1 149.1252044027 1.6649387984 4.104499356 -3.3417936109 -3.1799361695 1.8558405225
32856 1 151.2558216878 1.6667028801 2.544717257 0.7762961175 1.0910343184 -0.9470743936
32068 1 153.2701266938 3.3843610598 2.7468504642 -3.4051786132 -2.8511439417 -0.4439861206
24682 1 153.4855143144 1.4971353752 1.2931040671 0.6544233247 -1.8166095385 -0.2795033639
28845 2 153.5172766522 0.576114208 4.0047152047 -0.563267853 0.9772319079 1.3262720872
25384 2 151.3184222979 4.0271153293 59.5748574894 0.6311254196 -0.5379205566 0.3082181783
26156 2 155.6469258282 4.9413076595 2.5379356122 0.2487293094 -0.7546403489 -0.889121404
28087 1 157.4341217362 3.6734474543 4.4858181812 1.5470883143 0.1099200603 -3.355861365
29944 1 154.6716963041 3.1384563961 4.7251581714 -3.155706776 2.4726006563 -1.162215915
31586 2 156.0113444884 1.8351869328 2.6629286016 -0.6237123438 1.5140050244 0.5374217999
28301 1 154.6739758239 3.3305073197 59.4244536064 -0.5384942632 1.9401216623 -0.7335226463
33744 1 158.4086834025 1.1367043607 4.1632718042 0.6437503401 -0.2948740193 -1.8149228572
32139 1 158.5982684291 2.5997369504 2.2924497473 -2.6713931517 -1.6336146506 -1.5548798906
25309 1 161.1596270493 3.3003943035 1.6127111928 -1.2169489152 0.243097582 -1.2942024625
28594 1 160.6189809071 0.8966436512 2.6506673243 -2.6983805533 0.771721672 -1.4823911235
31254 1 162.5389885339 4.7427090265 2.8606849203 -1.3723094815 -1.3163538023 -2.108066384
33567 2 160.4792393948 3.0228527277 4.5566148186 -0.7690732204 -4.4250226347 2.1186644134
28643 2 159.1401587341 5.1919988939 2.7911301465 0.9093836495 -1.9681163825 -0.1046823275
28468 2 163.2236738798 1.9707415204 3.3411111171 -0.8266181248 0.9183738348 1.0529372752
24918 1 164.8631714337 0.9424753054 1.1221494919 0.0161707914 1.006038 -0.4278942789
25672 2 166.4653711325 2.5231762068 3.550233147 2.8916669954 1.7731298962 1.304507382
25680 1 165.1465545852 4.6698351354 2.702502257 1.4473884925 1.9154386128 1.0421714243
25787 1 164.501152372 3.8055100307 5.0232220428 0.4728580439 0.0269327454 -1.1196140994
30420 2 167.1659614237 2.7380938233 59.5377211099 -1.0959156721 1.2152178455 0.2100777015
32939 2 167.9485817659 5.1598554394 2.8273904315 -1.676834588 2.1474381932 -0.2700247532
24549 2 163.8519523491 3.6028734956 59.5554679611 -0.2377924887 -0.0337721509 -0.1608899485
23513 1 169.5452362774 3.9949132118 1.1742023588 3.9451396212 1.4231602674 -2.4293170565
31544 1 171.2888994401 1.8731108794 1.731261772 -1.3280854095 0.6412424102 -0.0386860925
32305 1 168.9747668455 2.0760518215 2.6982803448 -1.0348694776 1.6030834826 -1.4716254375
33493 1 169.0006834262 5.1537966055 5.3617174796 -0.2414041226 -0.4041968692 -2.291454219
33938 2 170.9436378312 1.7410500106 4.6049260166 -1.7409764884 -2.1731103936 -0.3575841206
35350 1 170.428717961 4.1751193979 3.5032342424 -3.1499050984 0.7890564434 -0.2448848576
36163 2 172.2393675926 4.1326898362 1.3587807104 -3.9518832249 -0.4235132513 -1.9261801842
27227 1 172.835446528 4.1577917246 4.3403762414 2.48919882 1.4563003922 0.1100086461
27373 2 177.837883087 4.4192580953 4.137992453 1.9132966935 -0.4358067167 -0.7724595431
28228 2 176.7541776658 2.8704606457 1.5402613295 1.4282032197 -2.0527262416 0.9835205457
29639 1 176.5997765268 1.8859436325 4.2010987057 -0.8783626224 -0.1117678307 -1.071901674
32045 1 174.8432216278 3.99676924 2.6818544617 0.4970561514 1.4015485746 3.8680706873
33492 2 173.7253878717 1.7007008746 3.4006666091 -1.695856208 1.4230551219 0.5658790684
36429 1 175.159727823 3.5225415387 5.2728767773 0.5550063351 -1.2325987936 -0.2411312708
31303 1 174.0099299676 2.0965979499 0.6922502327 0.7514544186 -2.3367301527 -2.9852190645
31550 1 177.858232851 0.5888941111 2.2423420672 -2.8196358279 0.3420999289 -0.5507264904
23501 1 179.405147355 2.8388268838 1.438127448 1.4950733487 -3.8371173855 2.7695603698
23897 2 179.5290533921 1.8180381431 3.9566686922 2.6138669033 1.4377227309 1.2949749134
28079 2 181.3609276851 4.2199628177 2.7742052972 -0.385411481 2.288011438 3.4283322283
31596 1 178.7775579206 5.1008049976 1.4964082938 2.7818366123 -0.1203690935 0.9219726444
32710 1 182.0906144712 1.6446005904 2.9300714154 2.5227728612 0.8106742438 1.9114734367
32039 1 180.3020261692 4.7567740813 5.3023518324 -1.8663737097 1.011836503 1.137733455
3938 1 5.6901569108 8.3809317538 1.4555512288 1.7133755853 4.143839761 1.8735499217
6241 2 4.7144324964 6.32094435 3.6381702823 -0.7457694357 -2.5841547308 0.0416911563
9038 2 2.6389138811 6.1919709834 0.9006610629 2.2795345044 0.1694042062 0.8712053386
10637 2 3.466806277 9.2624203664 2.8124109282 1.2709886924 -1.5598343907 -1.5961169836
11270 2 6.5964182979 8.8627278376 4.0081920759 -1.0774255731 -0.9451483181 -1.8359316844
3099 1 3.0157313977 7.6908134072 5.5419636885 2.8927476574 1.5275277482 0.9396379183
613 2 8.1140273954 7.0868499011 1.915122696 1.3557469145 -2.3056784837 -0.637023522
1756 2 10.4286155913 9.0272675826 1.6738780051 -0.6962049865 -1.1158637884 1.917995566
2365 1 7.8522716452 10.3275272067 2.2706395305 1.9772431925 1.9927019509 1.0561718447
3277 1 10.6976536118 6.3226246927 3.1071700712 0.5381005329 1.8728414918 2.3191237544
8445 1 9.4429517442 8.3967528491 4.216642362 2.8897290242 -0.0226044547 -1.7754407323
9521 2 7.9829764432 6.2131108752 4.9162248268 -1.7821214108 -3.4958516054 1.8132375735
691 2 15.4882183582 6.9056688894 3.4650614935 0.7508544637 -1.6022301819 -0.1521612327
4981 1 14.6777693451 9.2747984198 4.8394419541 -1.0083511261 2.517497836 0.0890835213
5253 2 12.1799153007 8.085802527 4.1744011205 -0.1073346079 -0.4414473784 1.7361624834
5631 2 13.3415290557 7.3764055405 1.3722606223 0.2813134181 -2.7826686074 -2.0048560536
8609 1 14.8369370996 9.6282464635 2.3805293244 3.8882355112 -2.2839835488 0.6878115288
3397 1 12.7216854643 10.238180508 0.9360529151 1.3868089216 -1.5632144893 -0.7461488244
4099 2 17.1017910031 9.4539060005 3.7919676851 0.1919401964 -0.4373408063 2.1878216818
4766 2 20.0784824213 9.5355838203 3.2474207687 1.3241269091 2.2487239663 -2.1277576621
6802 2 19.572016453 7.2814600194 1.1018495755 0.325448997 0.2524587647 0.354079491
7390 2 18.4943312149 6.6998880398 4.1094778927 0.1329011125 2.0276520078 0.8624777339
10226 1 16.9566740213 8.1802567423 1.5412092824 -0.792605173 0.5493317229 0.8120181529
1692 1 24.097698584 8.3853056474 3.667534298 0.7547540374 1.0133260662 3.0954548927
2396 1 22.3676656397 9.6752381161 4.4850950952 -0.9021088101 -1.4259363814 0.9191592236
4374 1 22.5979123597 9.5851418529 2.0881524786 0.229753503 0.2108862107 1.4998148769
7121 1 24.1778575634 5.800628463 2.6241939042 0.0572318876 -2.286723759 -1.6434857742
9977 2 21.8317893254 6.9342496739 3.3658619475 1.0488065484 -1.2622537004 2.0684185212
4606 1 23.1341530387 5.5663137907 5.1019628297 -1.1864278573 -0.0288751898 -0.3325719015
8366 2 24.9871895358 10.4647462706 5.4481008837 0.3152232445 -2.4790010816 -0.5203477738
10593 2 25.7217130052 6.7078530204 4.7355819984 2.1906175574 1.4511379346 -0.8507718117
6717 2 25.8930926838 7.6063816848 1.5470598752 0.1669014709 -2.2501251629 -5.5027640474
941 2 28.4684005905 9.2990845434 1.4783795763 -0.1355782639 0.4031124563 2.2207656542
1895 1 26.8041508295 9.0710344733 3.8931438448 2.7676828518 -2.1261698101 -1.846460999
2525 1 29.8961381191 6.3287230266 5.216970404 0.4167430782 -0.1377004453 0.7837915306
8821 2 28.8602488534 6.3221557395 0.5749889451 0.7825904855 1.5874348062 1.4152152097
9605 1 28.1566251339 6.9601429562 3.4481556983 4.3261749724 -1.2694257252 -0.7214745807
2697 2 29.2155648302 9.2486725155 5.2786825117 3.6107320702 -0.075545912 0.8990575231
7361 2 30.7013537116 7.6225786817 2.902320848 2.2327587001 1.6837329866 -3.5705783226
188 1 33.3040069101 9.6658736997 3.9232615847 0.3992145705 0.3464926258 -4.8168087293
3075 2 33.7128965463 7.5310060181 2.473897608 2.2536965678 -0.1111718034 2.2031942033
9349 1 34.2905284712 7.5311336166 5.3856597444 1.2699962634 1.5565843615 -0.0543921193
3769 1 35.913699168 6.9707364922 1.2355975186 3.1626741588 -3.2514473482 -1.4302143417
885 1 39.2787197863 9.8069198668 2.8776637023 2.4820324519 -0.7199900539 -1.5062730259
3659 1 38.536167228 7.5100132642 4.3339437895 3.4586472356 1.2586441113 -0.0156934512
7810 2 36.3742794677 9.0204762985 3.2015533519 -0.0526572279 -1.8683199583 -0.7883865926
8032 2 36.4177006133 5.9103837222 3.7779297277 0.6949617312 0.3696706254 -0.1490865179
8163 1 36.543535579 9.6604131731 0.7186555228 0.5138172325 -2.1469303555 0.6975754713
8809 2 38.5719409303 7.6151991832 1.3477248415 1.7354588484 -0.1713650305 -0.6421334869
6027 2 38.1649055121 10.0184626159 5.4199881897 0.6592521138 2.5464411651 -2.4531642996
6585 1 40.560672672 5.6608253066 0.6298126236 0.0435208959 -4.8371381821 0.8994705552
1939 1 40.670204266 7.8571546987 3.0664356514 2.9229440846 -0.7510058948 -0.3052858296
1634 2 41.4757315931 8.2707402724 0.5756948767 0.6091786484 -1.9480157911 -1.7913554684
3939 2 44.6381671768 7.8981514862 1.8393863038 -1.7850894451 0.5282276908 1.804684248
4312 2 43.0642355089 9.8929931327 3.3100402062 -2.8919861341 1.4542222971 1.5843630784
7978 2 43.8588294832 7.1408471299 4.6043891357 0.0816238587 -0.9834834496 0.5147838735
8022 2 40.8866858784 9.3310287058 5.2501638811 -0.2764755368 0.3100327496 3.1171475357
9132 1 42.2069164325 6.2465362889 2.6343335982 0.7721549062 0.4581183061 1.929953028
3013 2 40.8303512908 6.1639135604 5.5359197627 1.390635068 -1.3326470942 -1.7894136297
144 1 47.1964892424 8.7265974798 2.3720918525 3.1656887654 -1.3055388129 -2.9406743727
2963 2 48.2523629136 8.1211334907 4.9984754816 2.328405492 -0.883949562 1.4202299584
4964 2 46.7064938444 5.8533360585 0.9677875881 0.3641667113 0.6348808701 -0.9319902947
5083 1 45.7222509941 9.0227290904 4.4472889097 0.5670063018 1.7542795756 -2.0846918072
5873 1 46.3419664295 6.3489979466 3.7548085469 1.5071461125 0.1485410433 0.7579066245
9551 2 49.2444040878 5.8372275733 2.7734983263 1.2565037484 2.555351537 -1.0696408083
747 2 49.9869281884 9.1415309165 2.7202534489 0.8515494126 -1.6417374007 3.6559829955
461 2 52.1458652434 7.2285598948 2.8612400015 1.7231026342 0.287620492 0.1158649262
2030 1 50.5822517939 6.3884647483 4.8573373765 -2.2237731963 -3.7165773091 -0.639188534
9396 1 54.2877926206 8.3688005982 4.5881244304 1.0374350138 0.2142191542 3.3617719702
6935 1 52.5298532406 10.2927847606 2.9230006562 -2.1870803462 -2.6587883661 -1.0510429678
8524 1 54.0220177914 10.0111450428 0.7549803635 4.2118883786 -1.3984726632 -3.4249638901
10868 2 51.3239554087 8.796493982 5.5040232382 1.2308665509 -3.7843581253 0.0851284845
1966 2 54.7965099611 5.7959177941 4.0907744949 1.7698176471 -0.84994335 -0.6168807546