ITEM: TIMESTEP
22350000
ITEM: NUMBER OF ATOMS
11664
ITEM: BOX BOUNDS pp pp pp
-1.5754 57.3754
-1.5754 57.3754
-1.5754 57.3754
ITEM: ATOMS id type x y z vx vy vz fx fy fz
1 1 28.1421 33.5522 0.67393 -0.964024 -2.81891 -0.101394 0.630457 -0.215947 -0.0563495
2 2 30.0478 5.63594 31.4297 -1.11462 0.372762 -1.56655 -0.387429 -0.485472 -0.0379204
3 2 30.6121 53.7893 15.9082 0.128129 0.467752 -1.29537 -0.40758 -0.498361 -0.429701
4 1 40.1899 10.3941 8.78992 -2.57205 0.919501 -0.853974 -0.194405 -0.0901308 -0.274751
5 2 46.0147 55.7433 56.7021 0.513617 0.92556 1.52852 0.473352 -0.218714 0.0878364
6 2 37.6871 28.6394 15.9194 -0.738163 -0.758839 -0.0141907 -0.160571 0.813877 0.0188471
7 2 49.3339 10.8212 30.9889 0.814941 -5.00447 0.00580025 0.207581 -0.312185 -0.603243
8 1 -0.249433 0.192767 19.1579 1.06425 -0.341218 4.17845 -0.258106 -0.706833 -0.18204
9 2 10.4508 14.5484 5.46011 -0.0887444 -2.26096 -1.57416 0.0732036 -0.522213 -0.120734
10 2 30.4018 54.0453 32.4084 0.512911 -0.543731 2.25807 -0.448898 -0.409586 0.0665194
11 1 6.37768 30.6881 46.898 2.14118 -3.61272 0.440976 0.714682 0.727738 -0.451409
12 1 46.7203 25.0905 40.4547 1.78286 -0.653779 2.03938 0.297448 0.0285448 0.00269801
13 2 50.52 45.499 13.4524 -1.33225 0.200679 1.19423 -0.897395 -0.0675427 -0.107549
14 1 55.7457 27.5445 53.5274 -2.09025 -0.874226 -1.55772 0.121738 0.0273065 -0.278899
15 1 -0.417482 43.5127 36.9766 2.02376 -3.55778 2.0356 0.64385 -0.426679 0.46285
16 2 29.571 43.3102 26.9454 -0.358119 -0.857724 -2.17648 0.121451 -0.0550558 0.0434689
17 2 54.268 39.6635 24.6181 -4.27659 3.39801 -1.61533 -0.33732 0.140455 -0.114643
18 1 8.43768 1.45778 47.2211 -1.79951 3.5339 0.43032 0.0467134 -0.685791 0.0275905
19 1 44.4537 17.6702 41.93 -3.47769 -0.405027 -0.138149 -0.225996 -0.235354 -0.246045
20 2 29.3832 15.3473 46.2923 0.266012 0.295084 -1.95463 0.311478 0.0171204 0.142161
21 2 16.2505 24.4019 5.04379 -0.509567 0.871507 2.32628 -0.320363 0.587367 -0.632897
22 2 12.2502 19.8162 10.9395 -1.25531 -0.140939 0.605831 0.043272 -0.0705305 0.230328
23 2 10.4301 12.5358 56.3336 0.756674 -1.88217 1.13548 0.376632 0.134766 -0.0616717
24 1 10.3923 30.7432 45.7665 -2.04931 3.18293 0.225931 -0.194628 -0.49399 -0.192781
25 2 52.2644 41.0912 -1.29713 -0.240462 1.27676 0.952174 0.169787 0.323064 -0.105282
26 2 12.9149 9.40396 46.3897 1.11167 0.121584 1.26826 -0.269019 0.182488 -0.238185
27 1 13.0891 2.99301 8.30388 -0.0732309 -0.155112 0.662419 0.805919 0.332674 -0.502974
28 1 28.9805 51.3152 15.701 -1.31508 -0.398411 1.28332 0.919892 0.259429 0.434106
29 2 26.9991 38.5015 2.67452 0.377287 0.0299399 -0.594772 0.0413185 0.480454 0.709988
30 1 32.8357 31.0453 17.3284 -2.90914 -2.57536 -0.249828 0.661119 -0.328528 -0.216202
31 1 49.435 32.3604 32.0414 -1.12028 2.8979 -0.00203575 0.00449906 -0.721746 0.315943
32 1 38.6741 11.043 38.6516 -2.63154 1.89533 0.153745 -0.00223229 -0.54832 0.141442
33 2 25.3496 3.35563 12.2583 -2.06515 0.870969 -0.308282 0.501699 -0.287571 0.233378
34 1 6.42409 30.7258 39.5535 1.4774 -1.97191 0.115136 0.171183 -0.0536887 -0.21312
35 1 33.4632 30.8763 54.6575 -0.884198 1.67213 0.819329 -0.928977 0.0798609 -0.385009
36 1 21.9343 8.01226 55.9362 -2.079 0.746018 2.58586 0.0595012 -0.244101 0.0541363
37 1 4.57032 57.3131 28.5678 0.919324 1.30401 -0.934429 0.0857077 -0.0814245 -0.0793058
38 1 35.2374 53.2052 13.3259 0.197541 -2.41486 0.197699 -0.86044 -0.240692 -0.157248
39 2 0.661656 15.0193 -0.724803 2.2035 -1.165 0.590546 0.018804 0.0715356 -0.0678345
40 2 34.1365 44.0527 -1.03244 -0.254974 -1.08795 0.344146 -0.637466 0.584861 -0.54699
41 1 41.7279 15.1991 29.0378 -1.71491 1.74686 0.776089 0.357034 0.243952 -0.357578
42 1 8.54449 53.8204 20.3332 -0.0567884 1.10949 0.505521 0.172981 0.0268884 -0.0334423
43 1 10.3149 39.3355 14.9935 2.89537 0.162263 0.778329 0.356678 -0.343946 0.140662
44 1 39.7257 30.5939 15.6442 2.56867 -0.446859 0.681178 -0.494226 0.0176855 -0.276508
45 2 1.04169 35.4501 7.36426 -0.724905 0.608587 0.0753708 0.462422 -0.134662 0.516219
46 2 3.83022 30.3672 27.8809 1.73144 1.16689 -2.01484 0.280266 0.0327699 -0.505079
47 2 4.94636 25.4982 12.9946 -0.434281 1.24963 -0.383644 -0.103539 0.0662498 0.526257
48 2 56.8004 50.0801 51.9268 1.06343 -0.731015 -2.27454 0.257558 -0.566709 0.0715845
49 1 23.6753 6.9659 0.190079 0.285086 -2.75947 -0.805091 0.0977949 -0.0109692 -0.847397
50 2 23.5831 51.0061 17.186 -1.66063 0.18592 1.00537 0.0213163 -0.625895 0.219881
51 1 11.8198 20.1171 42.8096 -3.63826 3.02528 -1.45651 -0.542661 0.56264 -0.482029
52 2 10.2765 24.446 24.4546 -0.905799 0.893875 -0.665974 -0.482016 0.0971138 0.169671
53 1 46.6755 31.6567 41.3996 -0.952049 0.928196 0.786176 0.327626 -0.566706 -0.206898
54 1 13.3916 3.40881 49.5521 0.877252 0.116299 1.79475 0.144803 -0.468743 0.161435
55 1 19.8644 5.59301 5.66103 -1.99008 2.34501 1.34749 0.785424 0.583873 -0.00107136
56 1 36.2026 11.1156 9.17664 3.79704 1.06633 0.357619 -0.135071 0.309099 0.612316
57 2 3.78517 55.2233 41.5972 -2.10736 -0.0256105 -2.27638 0.467632 0.135169 -0.058263
58 2 44.1376 36.8234 29.9428 1.61419 -1.85147 0.0624549 -0.211318 -0.40364 -0.776551
59 1 6.52216 2.18075 23.3902 -1.12966 -1.07855 0.500826 0.32364 -1.10303 -0.231207
60 2 29.451 40.0288 27.7544 2.30436 -1.19699 -1.74493 0.0131744 0.202275 -0.0741956
61 2 27.661 45.0816 29.1388 -2.85308 -0.948363 -1.56188 -0.27282 -0.395891 -0.0298959
62 1 12.8336 11.7094 8.17542 -0.612612 0.165852 1.59407 0.46708 0.153994 -0.557542
63 2 7.29874 24.8247 15.0004 -0.126342 -3.06259 0.939458 -0.327139 0.775982 0.153827
64 1 26.9942 0.618519 4.34018 -2.12556 0.0171276 -0.406206 -0.450651 -0.00404424 0.0636832
65 2 55.7692 0.32263 53.9386 -1.34773 -3.21995 3.27254 -0.610847 -0.064242 0.165936
66 1 4.35565 6.38357 8.28938 -1.18668 -0.0500011 -2.65586 -0.319615 0.798185 -0.192598
67 2 23.3997 1.12564 11.6939 -0.709597 -0.00159228 -1.55118 -0.0106546 0.628976 0.229469
68 1 48.515 45.0983 38.0953 3.15459 -1.2191 2.6735 -0.248329 -0.708176 0.257465
69 2 24.2495 18.3254 48.6584 -0.0690178 0.128093 -0.117167 0.0306463 -0.361493 -0.0185102
70 2 6.92314 32.5828 55.3341 -0.39456 3.16461 1.03812 -0.203336 -0.392415 0.610183
71 2 41.8721 22.7365 49.2019 1.59142 -1.70456 -1.91221 0.0708361 -0.00345208 -0.293128
72 2 6.7625 0.168881 49.5901 2.0017 -1.33527 1.70085 -0.0477111 -1.03763 -0.50271
73 1 48.5418 37.5198 19.4313 -0.149564 -0.689343 -2.49257 1.30263 0.663183 0.537119
74 1 25.2297 3.7809 24.6605 1.49883 -1.23011 0.748176 -0.0117274 -0.154047 -0.540112
75 1 53.6923 0.723236 23.6435 -1.17973 0.217657 2.45165 0.757938 -0.204148 0.216799
76 1 55.8313 6.52854 42.1209 2.66194 -0.186359 -1.21335 -0.35578 -0.210121 0.156821
77 2 52.5196 56.357 13.9367 -0.0158053 1.93901 -1.31782 0.0469376 0.320886 -0.368461
78 2 3.48915 48.4039 27.329 -0.00425717 -0.939675 -0.570669 0.0149105 0.658194 0.0928621
79 2 25.1751 -1.43208 44.2987 1.43611 2.24027 0.564964 -0.104474 -0.0496589 -0.209878
80 2 21.8337 3.00891 5.24281 -0.912075 1.38462 -1.82566 -0.76477 -0.140299 0.385078
81 2 30.3217 21.9613 17.3518 0.56903 -1.33387 -0.969735 -0.418098 0.420379 0.0266884
82 2 36.3315 21.7604 47.1504 1.34107 -0.36523 -1.8015 0.148598 -0.515234 -0.643231
83 1 50.4513 19.883 4.19667 -2.55245 0.62882 2.80566 -0.0310741 -0.689257 0.0138016
84 1 43.2401 35.2617 47.8093 -0.0134103 -1.2591 -0.19557 -0.221698 0.124306 -0.35121
85 2 7.64998 20.5661 52.023 0.75425 -0.853776 -3.06025 -0.0312458 0.809919 -0.515058
86 1 43.4331 44.4112 43.2088 3.37431 4.55393 -3.34092 0.418667 0.768749 -0.529205
87 1 42.7668 24.6476 47.2857 0.380962 0.0575971 1.66249 -0.135699 -0.444996 0.26968
88 1 46.1281 29.2854 42.2158 1.95429 3.29097 -1.10259 0.0249419 -0.504771 0.241969
89 2 44.5527 41.7595 43.5719 0.43536 2.43759 1.30637 -0.0762328 -0.372015 -0.00173105
90 2 27.136 23.3514 -0.977744 2.12333 -0.0536015 -0.259429 0.341317 0.241621 0.341407
91 2 12.3754 52.133 46.462 -1.37033 1.17297 -0.170887 0.157911 0.101154 0.168272
92 2 19.4862 3.19341 24.9527 -2.45776 -0.336693 0.510318 -0.102684 0.0106025 -0.652515
93 2 25.9177 34.9714 21.1512 -2.02124 1.17569 -0.378666 -0.288804 -0.144912 -0.487749
94 1 34.0093 53.9683 7.93749 1.71799 -1.67461 0.891212 -0.159406 -0.50612 0.292705
95 2 36.9312 29.2649 56.1995 -0.192725 -3.06898 0.748407 -0.634799 -0.0346588 -0.221212
96 1 22.1446 9.78865 10.0608 0.602197 1.37418 -0.450261 -0.131809 0.0564619 -0.0954817
97 1 18.9531 30.7927 6.37575 3.58327 1.13918 -1.11892 -0.795033 0.0764176 -0.201388
98 1 7.49562 51.2445 26.2445 1.57247 1.60612 0.864454 0.255276 0.111781 0.268625
99 2 7.73954 28.2373 16.1206 2.11671 0.0919856 -0.452743 0.623246 -0.0162643 0.523666
100 2 7.23501 3.00989 30.4471 -1.77375 0.355193 0.0994963 -0.168356 0.484094 0.220121
101 1 3.7019 26.2286 57.1819 -3.7701 0.38711 -1.17478 0.244485 -0.469618 -0.0636082
102 1 15.4989 13.039 39.9199 -0.488355 -0.509158 4.30762 -0.751454 -0.497074 0.619675
103 2 12.9864 2.37054 54.4343 -3.58984 1.82909 1.30441 -0.206253 -0.732545 0.154947
104 2 0.927554 28.6765 15.1823 0.587641 0.336559 -2.75559 0.768075 0.387461 -0.162845
105 2 33.9932 32.5062 4.63695 -1.66101 3.24669 -1.62459 -0.239584 -0.324942 0.473014
106 2 21.3344 44.5816 0.863199 -3.40712 -1.99781 0.893656 -0.178529 0.347294 0.398112
107 1 54.0959 12.1147 2.15368 2.03085 -1.21518 0.504136 0.749937 0.285338 0.591064
108 1 26.7288 51.8723 8.15689 -2.04644 -1.66312 2.64669 0.0275911 -1.44104 0.363187
109 2 28.9181 -1.48929 20.3269 -0.144311 2.60122 -0.556095 0.0648899 -0.077567 -0.0156678
110 2 20.2633 55.4174 31.2342 -2.40361 -0.638575 -1.30821 -0.258595 -0.866638 0.320065
111 1 21.9094 9.58445 14.667 -1.97135 1.99569 -0.212645 -0.514327 -0.152832 0.462126
112 1 48.3423 55.4784 50.2028 1.55312 4.8243 -0.0298566 -0.0681783 -0.631725 0.0713226
113 2 48.1388 29.4924 33.454 0.924679 -7.62174e-04 2.99021 0.0113428 -0.564058 0.111652
114 1 53.7528 47.3337 20.7143 -3.05166 -0.810674 -2.24834 -0.313189 -0.259193 -0.0164199
115 1 56.0504 56.4953 38.1517 -1.44945 1.19948 -1.02539 0.439605 0.292437 0.29672
116 2 33.6894 42.9194 13.1789 3.54609 0.620078 -0.539588 0.861349 -0.467736 -0.0219061
117 1 17.2316 55.5141 14.117 2.15243 -1.39516 -0.0657487 0.612634 -0.609994 0.461198
118 2 4.26043 32.4402 20.6607 -0.05329 -3.3722 0.445905 -0.315506 -0.065339 0.234231
119 1 38.5428 8.19589 49.9919 -1.14987 -3.34209 1.12335 -0.405329 0.03158 -0.213619
120 2 33.5818 32.3583 35.9678 -1.66766 1.31379 -0.312244 -0.190551 0.231458 -0.249589
121 1 16.8209 36.3799 36.909 1.30997 1.07182 -1.23831 -0.658497 0.355615 -0.288755
122 2 1.29461 17.7751 53.1358 1.4518 -1.18857 1.83678 -0.0404798 -0.404953 0.611811
123 2 11.4718 11.0221 16.6819 0.429186 -2.03493 0.241068 -0.10394 0.0172419 -0.255326
124 2 49.0236 54.5888 26.3798 0.541027 -0.103479 1.11377 0.166644 0.203768 0.0832453
125 2 48.9121 10.4559 10.8195 2.51121 -0.713347 -2.06903 0.0685239 -0.452662 0.250182
126 2 54.4486 13.026 45.2199 -0.805438 2.81447 1.74356 -0.371649 -0.834566 0.378295
127 1 1.80369 50.3124 23.1084 -0.826408 -3.64177 0.106143 -0.412441 0.079767 -0.530123
128 2 39.4557 49.3652 39.1772 -0.606721 -0.813144 0.919459 0.308146 -0.00958941 -0.59376
129 2 31.5448 19.0865 35.7159 -1.29393 3.52474 0.420485 -0.96131 0.687094 0.35722
130 1 13.5572 7.85343 41.4513 0.976771 1.91948 -1.68376 0.319454 0.0412196 0.255954
131 2 9.44893 35.9423 11.5548 -0.2575 -1.63474 0.997665 0.230525 0.551819 0.515349
132 2 22.1938 10.0762 -1.09788 -0.902329 -4.17112 -0.301738 -0.242499 -0.180687 -0.349224
133 2 43.9472 39.9647 32.9487 0.468733 -1.38641 0.437414 -0.605235 0.29233 0.330954
134 1 47.2711 38.0203 10.5589 -2.04784 1.77723 -0.390891 0.312392 -0.0593569 0.190094
135 1 4.1328 8.49387 34.9968 2.0896 -0.382146 -1.16281 0.502538 0.685367 -0.957488
136 2 56.1166 27.3548 46.6804 -0.742101 0.470504 -0.123636 -0.314391 -0.0311207 0.124044
137 1 23.663 5.69194 14.398 1.38981 2.34652 -0.245044 -0.421929 0.229177 -0.159276
138 1 13.4668 29.986 51.5824 1.19002 0.537203 -0.390483 -0.0981227 0.174711 -0.147858
139 2 39.4823 57.2329 30.3732 -1.84943 0.361128 0.89492 -0.0106292 -0.0501805 -0.0383355
140 1 14.4738 5.64735 40.3895 -4.37423 2.13317 3.39344 0.121316 0.19987 0.446823
141 1 47.1728 7.39987 23.6389 -0.885907 -1.16916 0.0202998 0.309173 0.527618 0.140805
142 2 23.7464 31.2246 53.5973 0.94806 -1.02337 2.49065 -0.0858405 0.33611 0.161494
143 2 4.08495 9.08053 10.1551 0.923952 2.25601 2.47288 -0.188997 -0.0479939 0.0858295
144 2 22.1892 19.4707 53.6783 -0.239903 1.6051 1.75644 -0.639867 0.456726 1.09958
145 1 55.1898 42.7638 49.4628 2.43811 -0.0799286 0.901339 -0.589648 -0.115102 -0.00411188
146 1 50.2806 34.2152 8.90779 -0.809002 1.57852 -2.32748 -0.326423 0.298887 0.0431175
147 2 20.112 52.6318 9.76127 -2.362 -0.274079 1.27989 -0.234959 0.58843 0.211547
148 2 47.3247 34.9207 45.2838 0.0178728 0.710762 -0.330499 0.44292 0.240788 0.429126
149 1 13.0528 14.3949 33.4069 2.38624 -0.208885 3.59249 -0.309574 0.456041 -0.757711
150 2 23.0664 57.2942 41.4462 0.700868 -0.498121 -1.46509 -0.153268 0.967826 0.549446
151 2 12.5988 18.7599 49.0218 0.724177 2.20071 2.41369 0.393527 0.237123 0.0531534
152 2 7.96908 22.0994 24.7575 -0.172119 -2.87522 1.94598 0.58165 0.32027 -0.636211
153 2 49.0238 29.6146 26.02 -2.92261 -2.97213 2.77544 -0.51045 -0.144165 0.148666
154 1 32.4015 1.83457 6.68894 2.82909 -0.811917 -2.30599 0.0592636 0.557076 0.386909
155 1 23.6832 9.52238 17.1516 0.98457 -1.04593 3.4077 0.320177 -0.289441 -0.00540343
156 2 29.8619 43.0044 50.1905 1.19442 -2.06471 0.402471 -0.756308 -0.421287 -0.107084
157 2 54.9485 -1.4449 12.1719 3.31646 -0.294306 0.0642719 -0.0988015 -0.187808 0.201014
158 2 10.9757 43.7816 55.579 -2.35332 -0.72229 0.502104 0.118677 0.0482307 -0.00125576
159 2 19.6899 23.9633 45.8137 0.21373 -1.05869 -1.64109 -0.290298 -0.431221 -0.286153
160 2 40.7408 34.7531 17.5445 -0.366221 0.411508 -1.2215 -0.0577917 0.404097 -0.048424
161 2 38.1949 8.38965 38.0839 -0.367576 -0.672668 -1.57062 0.1846 -0.118709 -0.226525
162 1 18.545 25.6723 16.6921 1.15424 1.34945 0.272411 0.183611 -0.0702598 0.185904
163 2 16.3065 49.9841 56.1931 0.477833 0.200489 1.7825 0.194929 0.22139 -0.228546
164 2 49.7649 6.72673 6.38535 0.457189 -2.26389 -0.022 -0.286498 -0.528231 0.0791662
165 1 49.1837 27.1153 5.8006 -0.635657 0.786817 0.290325 0.396529 0.771465 -0.0200133
166 1 42.9177 11.1976 45.1234 -0.0818692 2.42103 -0.597535 0.320365 0.180571 -0.666723
167 1 55.451 35.8055 5.5107 -0.987952 -0.317446 -3.8143 0.378847 -0.366293 -0.7013
168 2 26.3182 2.28456 46.4142 2.13807 1.50546 -0.86643 0.37233 -0.484041 -0.0301405
169 1 17.672 25.173 26.7611 -0.472937 -3.71586 -2.03338 -0.546872 0.0785552 -0.140617
170 2 28.9528 27.0552 17.4801 2.95679 0.513374 1.92965 0.275613 -0.704632 -0.551151
171 1 23.2483 27.5467 32.6232 -1.64935 -1.80321 0.04325 0.00274902 0.157296 -0.089804
172 2 0.990571 37.5518 0.0883728 1.95938 -0.65178 3.35321 -0.431159 -0.203347 0.37169
173 2 54.3575 0.469403 14.6157 2.50174 1.81278 -0.288417 -0.120617 -0.254386 -0.433663
174 1 14.8614 18.1787 33.7339 2.12888 0.176352 -2.00686 -0.165256 -0.179967 -0.178731
175 1 55.236 13.0683 4.1075 -0.821918 -1.2161 0.201793 0.583675 -0.245982 -0.0337273
176 1 31.8782 53.0923 24.6829 0.417425 -1.82426 -0.977536 -0.115711 -0.323327 0.272557
177 1 10.0321 8.78334 15.4374 -0.667547 1.56513 -0.182238 0.87499 -0.385612 -0.0982705
178 2 35.887 0.356532 -0.378676 -3.65406 1.0779 -0.818829 -0.721435 -0.0738558 -0.158098
179 1 7.56513 2.62583 49.4668 1.5399 -2.22741 -0.86006 0.209017 0.444779 0.174676
180 2 29.5338 52.7244 8.53878 -0.944196 1.94779 -1.88659 0.475602 -0.398743 -0.370148
181 1 22.9015 8.85527 22.6583 2.32471 -0.325614 -0.221847 0.0598665 -0.8872 0.383194
182 1 52.2648 43.4622 30.1966 -1.37237 1.46488 -1.68683 -0.476781 0.332177 -0.0539992
183 2 47.3903 10.8138 21.8201 0.502952 0.755215 -0.24995 0.433433 -0.326228 -0.734944
184 1 19.0528 44.7136 24.4785 -1.85631 -0.671337 -2.71403 -0.169309 0.128351 0.160313
185 1 29.9642 4.5405 45.2502 3.92672 1.52194 -1.15157 0.0179311 0.127623 -0.525499
186 1 56.4799 4.80904 31.5809 1.10283 1.0206 2.23778 0.181509 -0.0950428 -0.263495
187 1 44.4124 25.7512 3.76833 0.8803 -0.405372 2.9037 -0.774179 -0.145415 0.396563
188 2 23.922 46.04 2.60182 -0.617151 0.190782 3.48903 -0.191753 -0.0330442 -0.114978
189 2 -1.57114 52.1084 11.5687 -0.128009 -1.32342 0.964803 0.707453 0.0895431 -0.273419
190 1 17.5671 42.7248 46.514 -1.59723 2.34981 -4.11603 0.0752223 -0.445466 -0.175992
191 2 50.8854 42.9767 32.3773 -0.0419974 -0.329116 0.838999 0.0576647 -0.330632 -0.543624
192 2 20.4673 46.9737 38.6251 -1.1673 3.19506 0.0699363 -0.0451092 0.620974 -0.250676
193 1 0.90436 26.2887 49.5673 -0.436574 -2.97715 0.832413 0.514934 -0.0121587 -0.188373
194 1 13.4569 23.272 26.2092 -0.777342 1.12891 0.588383 0.4114 -0.484203 -0.135924
195 2 14.3141 -1.45089 -0.62667 -0.186246 -0.797902 -4.60262 -0.259894 0.0750521 0.360568
196 2 45.145 4.68357 11.7009 -0.869412 -1.32789 -1.45422 0.0335375 0.0191823 0.197537
197 1 24.5056 9.92546 39.1005 -0.407464 0.887994 4.24594 0.158335 -0.134417 0.0741861
198 2 8.80494 17.4292 5.24932 0.757339 1.95745 0.763385 -0.405919 -0.0812455 -0.044455
199 2 0.0896243 16.2528 31.3671 0.655735 -0.119306 -1.21729 0.27784 -0.143013 0.512601
200 2 41.8569 50.2793 28.1213 -0.621158 -2.46129 -1.4365 0.842454 0.637194 -0.00359222
201 2 41.0662 37.4401 40.1036 1.02382 2.28359 2.52263 0.790436 0.415664 0.442439
202 2 20.3001 27.5384 3.10266 -0.194157 1.577 2.31581 0.32506 -0.418975 -0.218864
203 1 21.9547 9.25013 5.71952 1.75329 -3.1863 0.779832 -0.35187 -0.0743674 0.414041
204 1 12.2965 44.4962 6.37746 0.769096 -1.52159 0.910733 0.250616 0.0312035 -0.0182754
205 1 45.6288 30.8654 3.49156 -0.574487 0.0130639 -2.046 -0.0175061 -0.568779 0.188264
206 1 52.9335 45.1722 25.625 -2.71452 -0.766265 2.52587 0.425487 -0.779791 0.116562
207 1 21.4869 53.266 13.0714 0.829185 1.92932 -2.49881 -0.0979333 0.196517 0.415002
208 1 23.7744 41.0488 -0.221829 -4.27774 -1.58363 -0.426818 -0.151652 -0.0611052 -0.239455
209 2 36.0486 47.9938 17.9858 -1.44738 -0.689261 -0.956907 0.273038 -0.536687 -0.256155
210 2 34.3682 5.69675 40.7367 2.17648 0.367471 -1.52138 -0.524538 0.170187 0.779747
211 2 20.3339 1.58776 11.4336 0.644376 -0.681871 0.529925 -0.569664 0.359694 0.207628
212 2 -0.460259 21.2889 27.2074 1.25482 0.177544 2.75665 -0.20985 0.644945 -0.0682992
213 2 1.2423 45.8349 17.4766 1.49979 -0.272155 -0.68754 -0.626817 0.371115 -0.283059
214 2 23.637 25.4156 27.356 0.258793 -0.0347787 0.814649 0.105595 -0.591478 0.0229184
215 1 12.4219 12.5719 18.9661 0.166533 2.00291 3.62624 -0.114546 -0.0474167 0.119191
216 1 2.42665 52.0206 43.5498 -0.558374 2.26049 1.01649 0.0915841 0.190536 0.178271
217 2 24.6716 2.68399 27.4201 1.11315 -0.227791 -0.758614 0.304809 0.0374575 0.499129
218 2 46.701 42.1826 14.5292 -0.489242 -0.249375 -2.10882 0.0949315 0.0946983 0.116299
219 2 30.6237 0.019318 7.93689 -2.52754 0.499622 1.33384 -0.705249 -0.353 -0.355685
220 1 22.53 18.053 2.52937 0.643626 -2.99618 2.63217 -0.0982638 -0.106031 0.399236
221 1 23.8495 0.412052 14.3803 -0.350758 0.585161 -1.0766 0.497877 -0.0949964 0.00512568
222 1 50.9427 26.7705 9.86857 1.3439 -2.57728 -1.13625 0.760598 0.196738 0.170962
223 1 19.8799 4.38391 -0.324689 -2.57306 -0.419382 -2.06966 0.365268 0.408386 -0.228661
224 1 55.6874 57.037 5.79075 -1.73666 -1.07505 2.78452 -0.170852 -0.227756 -0.113391
225 2 32.2415 3.33126 49.5426 -1.64938 -0.910823 0.268902 0.527082 0.46742 -0.0142719
226 2 9.8688 2.69906 26.5349 -0.411858 1.49205 1.0192 0.136083 0.0532323 -0.0233664
227 1 29.3406 17.6316 34.4481 0.290274 0.884802 -0.565464 -0.155538 -0.540208 0.817404
228 1 37.4893 2.21586 54.3408 -0.182687 -1.77886 1.37386 -0.400201 0.0540741 0.198001
229 1 54.5947 0.132487 26.6158 1.48874 3.45972 1.40927 -0.582132 0.226419 -0.167042
230 1 14.0514 1.79422 24.8999 -1.0761 -1.88 1.00163 -0.0495269 0.468308 0.0662951
231 2 55.7192 40.4451 28.8655 -1.10143 0.197531 -0.586262 -0.523913 -0.0698784 -0.533315
232 2 36.8008 38.164 15.475 0.759494 -0.612128 -0.823586 -0.215454 -0.154871 -0.221878
233 2 26.8461 30.1454 10.5005 0.307948 1.73094 -0.579966 -0.203506 -0.0951904 -0.439737
234 1 8.41483 17.177 2.3463 2.56245 1.02602 0.172418 0.555341 0.490046 0.200256
235 1 19.1973 53.0922 2.64102 1.75708 -1.33571 1.58452 -0.10928 -0.0481669 0.415216
236 2 1.03256 11.834 -0.899781 1.52651 -0.309444 -0.830867 -0.779382 -0.834901 0.566089
237 1 2.95201 18.3473 51.1885 -0.0151217 -2.77085 -0.723479 0.0173836 0.369799 -0.321454
238 1 30.8015 48.1375 47.8143 -1.11241 4.18444 -0.471268 0.802424 0.651282 -0.957279
239 2 -1.487 19.2247 46.1288 1.73142 1.67187 1.70536 0.734876 -0.321546 0.157999
240 2 28.5995 49.7442 8.57159 -2.25785 1.10985 -1.52399 -0.0433388 0.0433187 -0.376737
241 2 51.934 6.54691 36.546 -2.01504 2.90123 1.97058 0.238837 -0.00695811 -0.645402
242 2 41.298 56.7198 46.896 0.939063 -0.139453 -0.536372 -0.469473 -0.0201135 -0.0358929
243 1 10.1911 55.7827 41.1775 3.75359 -0.713026 1.97294 -0.230823 -0.281516 0.44572
244 1 37.9402 46.7521 30.7104 -0.86609 0.982023 0.935818 0.500386 -0.287647 -0.683404
245 1 16.5316 21.835 12.4041 -0.265766 -0.813805 -0.51808 0.144764 0.517591 -0.477196
246 2 26.025 53.6593 20.2422 -2.7335 -1.17693 0.220635 -0.20807 -0.559744 -0.394408
247 1 47.5007 34.4375 39.0375 -0.922493 1.85034 3.21285 0.148499 -0.174559 -0.177895
248 1 14.2196 3.12084 1.33704 2.11466 -2.54898 -1.57835 0.480889 -0.142203 0.243361
249 2 13.2341 14.1311 45.9533 -1.82321 2.98286 1.60433 -0.0204765 -0.621526 -0.0505941
250 2 1.75666 -0.204539 12.0034 0.0458715 2.93862 -0.196071 -0.288735 0.392579 0.147716
251 1 15.9837 55.7229 2.4154 -0.98957 -0.375483 -1.49557 0.643298 0.682818 0.378414
252 2 14.3461 16.6041 15.9727 -2.03637 -0.213545 -2.67399 -0.569072 -0.472801 -0.0622315
253 1 9.61317 23.6597 43.9055 0.231289 -2.52174 3.38315 0.264497 0.420846 0.0178869
254 1 0.388331 49.3442 5.1407 2.20455 2.36245 -1.72978 0.31268 -0.467375 0.130191
255 2 19.387 42.2571 31.7513 1.88154 0.585918 -0.658688 -0.580609 -0.139651 0.277273
256 1 25.8462 54.9872 44.3242 4.27748 0.391913 0.372364 0.115227 -0.0680649 -0.322908
257 1 14.4224 34.9428 26.1584 0.806946 -1.37778 -1.01551 0.758941 -0.437522 0.281623
258 1 50.476 50.1612 17.2557 0.096974 -0.980685 2.50717 0.401554 -0.244645 0.262117
259 2 0.884291 0.340356 49.2535 1.76705 -1.53159 1.38965 0.352218 -0.131373 0.584128
260 2 42.6931 51.2626 4.85628 -1.80948 2.18412 -0.241502 0.0354495 0.149522 0.455482
261 2 28.2692 3.89255 33.6474 3.95769 -0.458044 -2.29876 -0.184378 -0.147039 0.357602
262 2 29.3989 16.6342 -1.39358 -0.816147 -2.45794 2.19773 1.07923 -1.17327 0.440478
263 1 25.864 23.3992 19.4699 0.404161 -0.583111 2.93657 -0.309268 0.205079 -0.560781
264 1 47.5671 35.563 11.0178 1.92117 3.43135 -2.66654 0.314619 0.674538 0.183796
265 1 15.6705 47.0918 33.3494 -1.95189 -3.24968 -5.49982 0.372691 0.195952 -0.261801
266 2 13.5333 4.3361 10.4841 0.0276524 0.0629002 0.675801 0.336617 -0.0311611 -0.00995645
267 2 9.65844 24.2758 40.9787 -1.43191 -0.953832 1.10295 0.0376491 -0.225997 -0.251854
268 1 12.7156 20.1885 29.7875 2.25519 3.14759 -4.1265 0.170326 -0.262059 0.586934
269 2 4.72544 5.23198 57.1563 2.20932 0.828823 -1.04686 -0.0176051 0.855869 0.0109608
270 2 54.429 47.2984 40.1988 0.534056 -3.48631 -3.08566 -0.73781 0.375473 0.147299
271 2 45.3167 18.7823 22.5961 -3.23777 2.46484 -1.75116 -0.040265 0.216683 0.0599331
272 1 5.03368 34.1877 23.0119 -3.30495 -0.196355 1.68496 -0.00735339 -0.686071 -0.327283
273 1 24.4758 14.0857 56.7295 3.94689 0.641402 -1.97679 0.161497 0.263396 -0.159755
274 1 48.6266 10.3796 38.5429 -1.6071 1.47648 -1.60412 0.245092 -0.243104 0.112796
275 1 20.9498 7.40021 46.1067 1.67951 -0.731994 1.65689 0.453596 -0.214084 -0.115787
276 1 8.15086 33.6013 35.8372 2.10897 -0.732043 -0.356985 -0.200489 -0.524659 0.209466
277 2 8.04134 26.9893 37.0046 0.223924 0.993956 1.02956 -0.0865557 -0.0420111 -0.380744
278 2 40.2138 12.2102 11.3462 2.07984 3.70796 -2.2388 0.420815 0.756223 -0.622216
279 1 23.6373 41.9197 8.02451 1.49623 -1.03724 -4.94523 -0.192978 0.194312 -0.141535
280 1 37.212 47.4245 46.236 -0.706589 0.884764 2.21075 -0.204645 0.0166583 -0.00402207
281 2 50.6649 22.0916 5.40636 -0.55565 -0.5082 0.221904 -0.451199 0.553833 0.377801
282 1 49.9265 6.45063 53.3662 1.22609 2.57813 2.55153 -0.345374 -0.042589 -0.358946
283 1 7.32537 1.94272 9.6714 -1.35746 0.500842 2.25031 0.0284528 0.121135 0.531964
284 2 41.4172 32.294 29.169 1.7889 -1.7106 3.89888 0.597574 -0.286145 -0.0919047
285 1 34.1798 13.7256 38.7573 0.16845 0.0321906 0.685136 0.358353 0.764908 -0.102056
286 2 -0.089421 45.9184 0.725792 -0.525773 -0.113062 -3.00841 -0.260147 -0.158158 0.284797
287 1 27.0873 51.9403 53.4123 1.66029 -2.00518 -0.830673 -0.506586 -0.123505 0.0702151
288 1 11.9017 23.9422 44.9351 -1.23883 0.532025 1.164 0.191658 -0.0210327 0.027551
289 1 -1.02444 14.4238 24.4778 -4.64285 0.374189 2.07859 0.169494 0.365398 -0.354197
290 2 9.89239 3.96782 45.4166 0.998935 -0.706492 -1.07905 -0.442851 -0.38143 -0.57474
291 2 15.6609 27.3803 52.665 0.812906 -0.377474 1.4068 0.0572931 0.377866 -0.0862954
292 1 13.5012 16.1783 48.01 4.25972 0.517868 0.834678 -0.572129 -0.113058 0.241029
293 1 26.9582 52.4168 37.3142 -1.76096 0.691392 -2.46239 0.0860744 0.393997 -0.523249
294 1 48.0793 26.1723 33.0201 1.88566 0.987909 -5.45451 -0.459691 -0.202658 0.145202
295 2 48.1431 53.492 15.968 1.40893 -1.3945 -1.485 -0.0956905 0.445279 0.142979
296 1 49.561 4.76786 26.9346 0.392319 -1.81535 -0.154738 0.329637 0.109881 -0.250762
297 1 48.9407 55.171 10.7675 -2.55265 -1.11928 -1.17954 -0.287958 -0.420276 -0.109434
298 1 33.5575 40.0152 43.7043 -2.57644 -2.0291 -1.09502 -0.783366 -0.607912 0.362471
299 1 24.5498 40.2934 19.9896 -2.02718 0.0109954 -0.668527 0.314783 -0.216358 -0.363426
300 1 49.3566 39.0792 23.693 -1.69046 0.343648 3.10136 0.0464501 0.0770209 -0.225264
301 1 24.1969 19.3873 40.9749 -4.89819 -0.636065 0.653321 0.457411 0.348293 -0.253507
302 2 36.5657 31.9161 36.2736 0.797193 -2.42426 0.777469 0.190869 -0.48968 -0.354701
303 1 11.7894 3.60692 36.177 -1.79675 2.34377 -2.64846 0.457143 -0.143125 -0.122267
304 1 0.854972 43.1953 25.0234 -3.48308 -2.36698 0.438224 -0.409233 -0.0197704 0.36136
305 1 4.58086 3.44128 0.018145 1.68121 0.232674 -3.76971 0.291207 -0.456172 0.709003
306 1 1.83232 54.6364 51.9702 -1.13599 -0.176633 -2.39108 0.0838977 -0.992917 -1.48541
307 2 51.3574 16.1166 41.8441 1.83826 0.210147 -3.80604 0.254172 -0.223384 -0.393647
308 1 9.1197 -0.310455 36.3658 -1.79527 2.71501 1.9401 0.554191 0.0274015 0.0539815
309 1 1.48817 52.1044 15.0369 0.43578 3.47613 -0.962076 -0.22348 0.402153 0.311604
310 1 45.4172 47.0929 24.4772 -1.07576 -3.26822 -0.817605 -0.487393 -0.187427 0.0377635
311 2 18.8177 21.931 48.1896 0.265832 0.247054 -2.45149 -0.199776 0.0461067 -0.320436
312 2 6.79588 40.6802 5.94867 -0.8705 -1.36726 -0.0692825 -0.0900224 0.19792 0.0988968
313 1 55.241 17.5295 7.41402 1.03173 -0.329942 -1.51524 -0.20584 -0.22535 0.113422
314 1 56.038 24.8535 47.6826 3.44371 2.37752 0.437275 -0.13521 -0.0122022 -0.0447201
315 2 32.5878 25.5123 48.8291 -2.48326 -0.241208 -2.08509 -0.10787 0.685989 0.0250924
316 1 45.473 32.1692 35.6684 -0.134146 -0.365328 -1.08237 0.434558 -0.272282 0.223017
317 1 16.0422 41.6036 50.396 1.7386 -3.24979 0.629987 0.353539 -0.361971 0.138987
318 1 42.1071 -0.0321045 2.81983 2.04205 1.55858 1.75783 -0.309024 0.0213957 -0.267257
319 2 44.7541 56.0812 32.5202 -2.56849 -1.81659 0.291263 0.420713 0.297112 -0.0624335
320 1 53.3527 35.5197 36.8481 8.2598 1.0982 1.40431 0.461311 0.692394 -0.737046
321 2 12.8901 22.577 6.6317 -1.50586 1.9876 -0.645801 -0.519628 -0.0944751 -0.523578
322 1 16.8464 37.3894 5.69799 1.77608 0.102222 1.39563 0.304903 0.146458 -0.0629697
323 1 44.0347 7.86653 42.557 -1.93297 1.12551 -1.46541 0.316831 0.298904 0.20683
324 1 51.8373 38.0884 31.616 2.84373 -0.0110864 -1.28333 0.122603 0.236244 0.272113
325 1 14.7298 16.855 50.1359 -1.78394 0.545139 -2.66986 0.219343 0.545109 -0.169561
326 2 39.7056 0.576853 4.15118 -0.463368 0.0756808 -4.04615 0.142141 0.169012 0.35042
327 2 21.2812 -1.34681 38.8499 -0.954611 1.57273 -0.105643 -0.168729 0.116255 0.243008
328 2 28.0547 51.5609 31.7297 0.355014 1.29488 -1.4902 0.251585 0.337804 0.320029
329 1 56.7421 8.89626 9.32054 2.90234 -4.09756 -3.35707 0.237271 0.0280927 0.216462
330 2 40.984 20.951 30.1569 0.937748 1.16509 0.668597 -0.494159 -0.51209 -0.376288
331 1 11.4231 51.6665 3.24637 1.37427 -1.75844 -1.36724 -0.270883 -0.152872 0.241095
332 2 28.6766 18.5323 30.0058 1.80756 0.118122 1.197 0.312568 -0.248169 -0.0201346
333 2 15.9191 52.7065 47.6752 2.13548 2.10704 -1.69422 0.0211256 -0.311836 -0.101327
334 2 44.9755 51.2899 50.8158 1.50789 1.65272 -0.127567 0.356002 0.222729 0.301426
335 2 8.8102 29.2518 4.50082 -0.961539 0.540664 0.182773 0.536518 0.469985 0.751212
336 1 5.35562 50.546 5.44124 0.680518 0.300886 2.78077 0.0177446 -0.155555 0.161787
337 2 48.651 29.7429 43.1979 -2.43645 1.6052 -1.57083 0.00717738 -0.148266 0.00892832
338 2 30.4077 12.4814 23.1721 -0.0643822 -4.37187 -0.241893 0.363 0.0684791 0.0515626
339 2 4.59768 21.6335 56.1796 1.31554 -0.487873 -0.0454082 -0.203394 0.0607084 0.183363
340 1 23.0018 0.372781 53.8418 1.89283 1.16792 0.942799 0.182779 0.00150646 0.087407
341 1 43.9233 15.2891 38.3253 -0.358021 -3.3736 -1.61544 -0.136803 0.427128 -0.277428
342 2 0.419865 5.28423 25.7699 0.519339 -1.07776 0.936027 0.198695 0.126713 0.462537
343 1 18.9297 44.2762 13.0654 2.92737 0.574075 -1.71183 -0.325421 0.188551 -0.206423
344 2 29.2804 29.6298 12.8095 -1.53127 0.227405 2.86324 0.246673 -0.209055 -0.329454
345 2 4.26844 34.3753 17.9726 -1.82854 -1.22851 1.31622 -0.158559 0.155356 -0.0670276
346 1 52.6408 34.2568 34.4356 3.15605 1.86693 0.997775 -0.397187 0.563502 0.122209