ITEM: TIMESTEP
22350001
ITEM: NUMBER OF ATOMS
11664
ITEM: BOX BOUNDS pp pp pp
-1.57492 57.3749
-1.57492 57.3749
-1.57492 57.3749
ITEM: ATOMS id type x y z vx vy vz fx fy fz
1 1 28.1403 33.5464 0.674153 -0.772431 -2.87931 -0.121048 0.634394 -0.172013 -0.0727083
2 2 30.0454 5.63695 31.4265 -1.19096 0.269871 -1.57695 -0.32862 -0.488929 -0.0526009
3 2 30.6122 53.7898 15.9057 0.0375611 0.362553 -1.38728 -0.449122 -0.498325 -0.432651
4 1 40.1845 10.3962 8.78844 -2.62735 0.892015 -0.934426 -0.160823 -0.094032 -0.252011
5 2 46.0155 55.7446 56.7048 0.610791 0.877371 1.54985 0.442609 -0.241381 0.106268
6 2 37.6855 28.638 15.9196 -0.771466 -0.586499 -0.0133433 -0.150545 0.818884 -0.0107676
7 2 49.3352 10.8114 30.9887 0.859423 -5.06785 -0.122794 0.208824 -0.262084 -0.612284
8 1 -0.246924 0.192321 19.1663 0.985531 -0.554479 4.12219 -0.263899 -0.696173 -0.202896
9 2 10.4509 14.5439 5.4573 -0.0739586 -2.36791 -1.59996 0.0669962 -0.477501 -0.115302
10 2 30.4027 54.0437 32.4128 0.41627 -0.627214 2.2687 -0.467126 -0.376811 0.0227479
11 1 6.38253 30.6811 46.8984 2.35694 -3.38973 0.299949 0.698541 0.753028 -0.478687
12 1 46.7236 25.0892 40.4586 1.86943 -0.639759 2.03693 0.266392 0.0660334 -0.0258679
13 2 50.5168 45.4991 13.455 -1.51677 0.188607 1.16863 -0.840084 -0.0475567 -0.140427
14 1 55.7411 27.5427 53.5238 -2.05133 -0.862086 -1.64215 0.141749 0.0556562 -0.271632
15 1 -0.412778 43.5052 36.9806 2.22054 -3.67946 2.17038 0.644843 -0.362139 0.417497
16 2 29.5702 43.3082 26.941 -0.332326 -0.867363 -2.16517 0.124132 -0.0317903 0.0742429
17 2 54.259 39.6701 24.6149 -4.34552 3.42825 -1.63698 -0.292983 0.128469 -0.0819333
18 1 8.43441 1.46507 47.2217 -1.7829 3.32358 0.435386 0.0689263 -0.711262 0.00427684
19 1 44.4464 17.6695 41.9294 -3.54253 -0.475278 -0.214637 -0.188893 -0.225801 -0.257098
20 2 29.3838 15.3481 46.2881 0.330201 0.299019 -1.92361 0.293922 0.0186121 0.160755
21 2 16.2496 24.4038 5.04868 -0.577533 0.994336 2.18969 -0.319536 0.569308 -0.669772
22 2 12.2479 19.8161 10.941 -1.24524 -0.15532 0.652361 0.0581284 -0.0646988 0.206471
23 2 10.432 12.5323 56.3354 0.836509 -1.85246 1.12298 0.374218 0.155427 -0.0620367
24 1 10.3885 30.7493 45.7666 -2.10957 3.02843 0.167636 -0.195001 -0.534294 -0.191831
25 2 52.2636 41.0936 -1.29477 -0.204176 1.34361 0.929439 0.174391 0.30239 -0.114349
26 2 12.9174 9.40454 46.3919 1.0508 0.159933 1.21803 -0.311942 0.179388 -0.242862
27 1 13.0895 2.99321 8.30537 0.170106 -0.0513935 0.50989 0.796551 0.350782 -0.503624
28 1 28.9782 51.3141 15.7039 -1.03213 -0.318235 1.41465 0.94769 0.269857 0.426194
29 2 26.9999 38.5015 2.67389 0.386158 0.13208 -0.444838 0.0406519 0.484847 0.710181
30 1 32.83 31.04 17.328 -2.7043 -2.67178 -0.316723 0.697696 -0.297457 -0.223391
31 1 49.4324 32.3659 32.0415 -1.11685 2.67492 0.093663 0.0219934 -0.756442 0.314178
32 1 38.6687 11.0469 38.6518 -2.6277 1.72491 0.197161 0.0365981 -0.580379 0.143897
33 2 25.3456 3.35771 12.258 -1.95812 0.809398 -0.258257 0.520211 -0.298736 0.241
34 1 6.42744 30.7218 39.5535 1.52927 -1.98548 0.0522196 0.165254 -0.0288206 -0.20154
35 1 33.461 30.8797 54.6586 -1.16232 1.69622 0.70315 -0.899211 0.0730001 -0.382792
36 1 21.9303 8.014 55.9409 -2.06138 0.673293 2.59112 0.0637391 -0.237333 -0.0285038
37 1 4.57257 57.3152 28.5659 0.942971 1.27747 -0.958636 0.0668121 -0.097869 -0.0768498
38 1 35.2374 53.1999 13.3265 -0.0703675 -2.48461 0.14889 -0.904251 -0.210193 -0.164809
39 2 0.666511 15.0172 -0.72317 2.20368 -1.14845 0.576834 -0.0280409 0.0906931 -0.0647151
40 2 34.1358 44.0504 -1.0314 -0.387718 -0.961638 0.229231 -0.615997 0.614433 -0.540914
41 1 41.7244 15.2029 29.0392 -1.60413 1.82004 0.669603 0.378338 0.231817 -0.346251
42 1 8.54474 53.8222 20.3344 -0.00442439 1.11865 0.49839 0.171998 0.0295929 -0.0152641
43 1 10.3211 39.3356 14.9953 3.00404 0.0598186 0.823032 0.348832 -0.331144 0.150987
44 1 39.7305 30.593 15.6457 2.4174 -0.440384 0.597018 -0.510677 0.0264944 -0.279989
45 2 1.04077 35.4512 7.36486 -0.624741 0.586988 0.184812 0.487946 -0.072516 0.517867
46 2 3.83414 30.3695 27.8767 1.79153 1.17323 -2.11866 0.279179 0.0213524 -0.466218
47 2 4.94584 25.5008 12.9942 -0.45266 1.26306 -0.270959 -0.0680316 0.0545313 0.540779
48 2 56.8021 50.0781 51.9219 1.11809 -0.852774 -2.25701 0.253861 -0.580551 0.10544
49 1 23.676 6.96072 0.188662 0.315501 -2.75932 -1.06473 0.101479 0.0214792 -0.85939
50 2 23.5798 51.0059 17.1882 -1.65367 0.0514797 1.0535 0.0527094 -0.645787 0.230008
51 1 11.8126 20.1235 42.8063 -3.79893 3.19421 -1.60121 -0.502674 0.539182 -0.465678
52 2 10.2749 24.4479 24.4534 -1.0076 0.913086 -0.630968 -0.475741 0.0800284 0.164527
53 1 46.6733 31.6584 41.4009 -0.850934 0.759744 0.722958 0.34145 -0.545655 -0.212073
54 1 13.3937 3.4093 49.5553 0.921613 -0.0253587 1.84362 0.144244 -0.464384 0.154118
55 1 19.8608 5.59824 5.66409 -1.75161 2.5196 1.34947 0.791652 0.557601 0.00941302
56 1 36.21 11.1181 9.17785 3.75098 1.16136 0.54573 -0.181389 0.31293 0.625037
57 2 3.78144 55.2229 41.5924 -2.0094 0.00632784 -2.28838 0.468759 0.166846 -0.0438732
58 2 44.1406 36.8195 29.9428 1.56691 -1.93988 -0.0996908 -0.243611 -0.422832 -0.756396
59 1 6.52034 2.17868 23.3912 -1.02862 -1.40735 0.423238 0.345559 -1.05817 -0.281392
60 2 29.4556 40.0262 27.7509 2.30116 -1.15363 -1.75535 -0.0548797 0.213565 -0.0155645
61 2 27.6553 45.0794 29.1356 -2.91065 -1.03331 -1.57053 -0.257242 -0.402294 -0.0440448
62 1 12.8327 11.71 8.17876 -0.466188 0.216304 1.42084 0.499146 0.177625 -0.588574
63 2 7.29875 24.8188 15.0025 -0.197169 -2.89807 0.971294 -0.341704 0.794366 0.142423
64 1 26.9898 0.618996 4.33977 -2.25984 0.0170068 -0.384258 -0.426115 0.00318959 0.0822384
65 2 55.7659 0.316623 53.9448 -1.47737 -3.23147 3.30646 -0.607889 -0.02861 0.138463
66 1 4.35356 6.38407 8.28433 -1.28264 0.190604 -2.71105 -0.308156 0.786213 -0.161644
67 2 23.3983 1.12621 11.6911 -0.712236 0.131653 -1.50031 -0.0107589 0.630492 0.259025
68 1 48.5209 45.0953 38.1005 3.07835 -1.43436 2.74875 -0.264582 -0.704942 0.228811
69 2 24.2495 18.3258 48.6578 -0.0607061 0.0544409 -0.123353 0.0482606 -0.335315 -0.0393797
70 2 6.92265 32.589 55.3359 -0.441364 3.07457 1.16702 -0.237101 -0.474425 0.602965
71 2 41.8751 22.7331 49.1977 1.60673 -1.70465 -1.97425 0.06598 0.0110861 -0.283743
72 2 6.76684 0.166441 49.5931 1.99013 -1.55839 1.59273 -0.071597 -1.06472 -0.527702
73 1 48.5416 37.5185 19.4267 0.244152 -0.489769 -2.32805 1.29025 0.653267 0.554754
74 1 25.2327 3.77878 24.6619 1.49682 -1.27635 0.585836 -0.00670473 -0.146177 -0.531379
75 1 53.6898 0.724051 23.6485 -0.949855 0.153519 2.51557 0.759708 -0.218915 0.195605
76 1 55.836 6.52845 42.1183 2.5531 -0.249953 -1.16323 -0.370086 -0.207965 0.177385
77 2 52.5192 56.3605 13.9342 -0.0059798 2.00604 -1.39558 0.0460136 0.303013 -0.359942
78 2 3.48955 48.4018 27.3279 0.00105505 -0.799644 -0.550739 0.035323 0.670078 0.0983615
79 2 25.178 -1.42713 44.2995 1.41134 2.22787 0.518199 -0.136789 -0.078618 -0.234969
80 2 21.8318 3.01206 5.2396 -1.07588 1.35463 -1.74169 -0.779 -0.14998 0.417679
81 2 30.3227 21.9588 17.35 0.480443 -1.24302 -0.962657 -0.422074 0.444978 0.0450364
82 2 36.3341 21.7596 47.1464 1.37086 -0.473206 -1.93525 0.126348 -0.503562 -0.612043
83 1 50.4458 19.8842 4.20267 -2.56 0.416615 2.80812 -0.00977329 -0.710148 -0.00727015
84 1 43.2397 35.2591 47.8085 -0.0823428 -1.21856 -0.303211 -0.232131 0.146994 -0.356857
85 2 7.65181 20.5647 52.0164 0.748389 -0.679637 -3.16666 -0.0278967 0.840333 -0.475609
86 1 43.4398 44.4203 43.2018 3.49511 4.78014 -3.49501 0.365008 0.704943 -0.473821
87 1 42.7672 24.6476 47.2888 0.340792 -0.0790638 1.74277 -0.130118 -0.455026 0.253103
88 1 46.1317 29.2918 42.2135 1.95912 3.13629 -1.02948 1.14426e-04 -0.525079 0.243216
89 2 44.5533 41.7641 43.5742 0.418667 2.35933 1.3045 -0.0837185 -0.37987 -0.0223739
90 2 27.1403 23.3515 -0.977721 2.18788 -8.37791e-04 -0.191277 0.258321 0.25738 0.304076
91 2 12.373 52.135 46.4614 -1.33693 1.19309 -0.132544 0.164592 0.0832411 0.195006
92 2 19.4814 3.19314 24.9537 -2.47548 -0.335665 0.37013 -0.0525909 7.91146e-04 -0.675108
93 2 25.9137 34.9737 21.1504 -2.07979 1.14488 -0.48297 -0.254558 -0.152165 -0.496275
94 1 34.0126 53.9644 7.93969 1.66742 -1.82526 0.979125 -0.179504 -0.480015 0.283061
95 2 36.9305 29.2588 56.2005 -0.325769 -3.07247 0.702395 -0.62181 0.0169188 -0.217428
96 1 22.1459 9.79171 10.0602 0.559224 1.389 -0.479521 -0.153221 0.0363262 -0.0956127
97 1 18.9602 30.795 6.3738 3.33943 1.16237 -1.17913 -0.822902 0.0723356 -0.191215
98 1 7.49917 51.2474 26.2463 1.64658 1.63972 0.941836 0.227218 0.103946 0.237893
99 2 7.74423 28.2375 16.12 2.24649 0.0855601 -0.342924 0.592917 -0.0449284 0.516621
100 2 7.23176 3.01111 30.4473 -1.80543 0.456039 0.145493 -0.122279 0.467366 0.214152
101 1 3.69483 26.2292 57.179 -3.69374 0.244353 -1.19622 0.271321 -0.471684 -0.0734694
102 1 15.4979 13.0381 39.9285 -0.710021 -0.657328 4.48318 -0.706384 -0.47677 0.521327
103 2 12.9794 2.37446 54.4365 -3.63155 1.67185 1.33654 -0.170127 -0.76285 0.142262
104 2 0.929331 28.6772 15.177 0.747155 0.419167 -2.78724 0.73676 0.391689 -0.122618
105 2 33.9897 32.5126 4.63418 -1.70971 3.17682 -1.52317 -0.212555 -0.351628 0.493758
106 2 21.3276 44.5774 0.865511 -3.44187 -1.92551 0.977527 -0.133028 0.346064 0.390215
107 1 54.0998 12.1127 2.15528 2.25451 -1.12699 0.681452 0.715687 0.29949 0.574701
108 1 26.7247 51.8682 8.16262 -2.03657 -2.08652 2.74563 0.0444581 -1.34099 0.279095
109 2 28.9178 -1.48363 20.3259 -0.129751 2.58379 -0.559474 0.0734579 -0.100141 -0.0135077
110 2 20.2585 55.4155 31.2316 -2.45688 -0.823305 -1.23998 -0.233044 -0.876303 0.331361
111 1 21.9054 9.5887 14.6669 -2.1281 1.94974 -0.0730451 -0.510951 -0.156595 0.457787
112 1 48.3451 55.4874 50.2024 1.53197 4.6309 -0.00844984 -0.0764288 -0.658373 0.0697304
113 2 48.1403 29.4922 33.4599 0.926302 -0.119689 3.01299 -6.04359e-04 -0.560065 0.0888716
114 1 53.7462 47.3317 20.71 -3.14487 -0.886749 -2.25424 -0.289996 -0.238905 -0.0146437
115 1 56.0472 56.4973 38.1496 -1.31706 1.28463 -0.934516 0.437085 0.264068 0.305184
116 2 33.6966 42.9203 13.1781 3.72359 0.522614 -0.54373 0.798749 -0.456591 -0.0145653
117 1 17.2362 55.5107 14.1172 2.33688 -1.57751 0.0742829 0.59439 -0.585862 0.461047
118 2 4.26064 32.4334 20.6618 -0.117403 -3.38503 0.49528 -0.290242 -0.0392273 0.230259
119 1 38.5402 8.18954 49.9937 -1.27256 -3.32968 1.05832 -0.398503 0.0617351 -0.218461
120 2 33.5783 32.3609 35.967 -1.70666 1.36227 -0.366933 -0.169799 0.22023 -0.265795
121 1 16.8235 36.3821 36.9063 1.10686 1.17918 -1.32443 -0.683432 0.347589 -0.274044
122 2 1.29794 17.7728 53.1392 1.44303 -1.2729 1.96504 -0.0496547 -0.386236 0.591394
123 2 11.4729 11.0183 16.6825 0.407314 -2.02948 0.187693 -0.104927 0.0443133 -0.250381
124 2 49.0244 54.5882 26.3821 0.575593 -0.0589522 1.13062 0.1574 0.217622 0.070571
125 2 48.9168 10.4547 10.8156 2.52388 -0.808676 -2.01207 0.0387433 -0.444865 0.298564
126 2 54.4465 13.0317 45.2232 -0.88509 2.63728 1.82376 -0.377237 -0.854299 0.371062
127 1 1.80234 50.3048 23.1085 -0.953201 -3.6137 -0.0556675 -0.419546 0.117655 -0.535665
128 2 39.4544 49.3632 39.1787 -0.542821 -0.816666 0.792359 0.298864 -0.0196656 -0.612182
129 2 31.542 19.0939 35.7167 -1.49521 3.66706 0.4956 -0.934749 0.640704 0.350698
130 1 13.5595 7.8576 41.4477 1.07315 1.93331 -1.60418 0.311792 0.043176 0.273852
131 2 9.44876 35.939 11.5571 -0.210121 -1.51687 1.1048 0.21859 0.570458 0.492331
132 2 22.1921 10.0682 -1.09809 -0.95348 -4.20139 -0.372963 -0.23651 -0.0847787 -0.322514
133 2 43.9478 39.9618 32.9495 0.341977 -1.32372 0.504915 -0.595229 0.307092 0.30491
134 1 47.2668 38.0237 10.5585 -1.95193 1.76006 -0.333965 0.326205 -0.0598088 0.186075
135 1 4.13752 8.49363 34.9941 2.23709 -0.178507 -1.44608 0.461374 0.656782 -0.903597
136 2 56.1146 27.3558 46.6799 -0.806821 0.464827 -0.0980164 -0.293669 -0.024874 0.118731
137 1 23.6657 5.69707 14.3977 1.25843 2.40969 -0.293648 -0.44798 0.178615 -0.159901
138 1 13.4694 29.9871 51.5812 1.15812 0.590011 -0.43513 -0.115982 0.171131 -0.144765
139 2 39.4784 57.2332 30.3749 -1.85047 0.352508 0.885786 0.010014 -0.0330869 -0.0524449
140 1 14.4653 5.65204 40.3962 -4.33318 2.19077 3.52767 0.164131 0.172036 0.425242
141 1 47.1709 7.39802 23.639 -0.79296 -1.01192 0.0633809 0.305892 0.511768 0.142785
142 2 23.7483 31.2226 53.6019 0.931623 -0.950582 2.52159 -0.0742333 0.356988 0.118614
143 2 4.08715 9.08534 10.1604 0.885464 2.24495 2.49078 -0.179389 -0.0677937 0.0710179
144 2 22.1887 19.4742 53.6817 -0.372726 1.69471 1.9914 -0.614411 0.382314 1.11263
145 1 55.1941 42.7634 49.4643 2.25632 -0.113804 0.897928 -0.615807 -0.107667 -0.02147
146 1 50.2785 34.2184 8.90346 -0.909276 1.66536 -2.31554 -0.331014 0.267412 0.0435696
147 2 20.1073 52.6309 9.76417 -2.41105 -0.149522 1.32384 -0.216948 0.590278 0.197441
148 2 47.3246 34.9221 45.283 0.110069 0.760881 -0.238835 0.428454 0.229416 0.438943
149 1 13.0577 14.3949 33.4137 2.29192 -0.0702494 3.36298 -0.319685 0.457508 -0.765863
150 2 23.0679 57.2929 41.4432 0.669522 -0.291864 -1.34845 -0.146504 0.984236 0.560391
151 2 12.6006 18.7645 49.0263 0.806647 2.25099 2.41941 0.382397 0.227172 -0.0111116
152 2 7.96918 22.0938 24.7613 -0.04894 -2.80499 1.81135 0.583524 0.357844 -0.646033
153 2 49.0175 29.6086 26.0256 -3.03226 -2.99947 2.79348 -0.511505 -0.0994556 0.00805325
154 1 32.4071 1.83354 6.68479 2.84375 -0.639426 -2.18652 0.0274617 0.581473 0.407705
155 1 23.6853 9.52049 17.1586 1.08242 -1.134 3.40456 0.320689 -0.286775 -0.0270592
156 2 29.8641 42.9999 50.1909 1.03387 -2.15328 0.378302 -0.767167 -0.405681 -0.123363
157 2 54.9547 -1.44505 12.1724 3.29267 -0.332593 0.106523 -0.14256 -0.172624 0.198031
158 2 10.9713 43.78 55.5795 -2.32855 -0.712539 0.50189 0.127176 0.0475273 -0.00326318
159 2 19.6904 23.9611 45.81 0.151778 -1.14949 -1.70391 -0.296349 -0.421792 -0.299513
160 2 40.7398 34.7539 17.5422 -0.378002 0.498221 -1.22955 -0.0517427 0.413488 -0.0215917
161 2 38.1941 8.3886 38.0805 -0.328743 -0.696514 -1.61608 0.184289 -0.103342 -0.195374
162 1 18.5476 25.675 16.6929 1.20842 1.32761 0.326565 0.169101 -0.078215 0.169722
163 2 16.3077 49.9841 56.1962 0.522281 0.24641 1.73273 0.222825 0.211668 -0.250704
164 2 49.7654 6.72243 6.38568 0.396272 -2.37705 -0.00704737 -0.291574 -0.530169 0.0622787
165 1 49.1822 27.1171 5.80153 -0.516602 1.01895 0.282819 0.389569 0.75429 -0.0304127
166 1 42.9174 11.2028 45.1217 0.015255 2.47749 -0.802599 0.319418 0.182838 -0.681423
167 1 55.4487 35.8046 5.50322 -0.871439 -0.424392 -4.02215 0.391735 -0.33678 -0.654046
168 2 26.3225 2.28789 46.4122 2.21448 1.39921 -0.873447 0.339307 -0.527734 -0.0318781
169 1 17.6711 25.1656 26.757 -0.636421 -3.69086 -2.07527 -0.527928 0.0988865 -0.128156
170 2 28.9588 27.0561 17.484 3.01136 0.36554 1.81255 0.22547 -0.695274 -0.565326
171 1 23.2451 27.5431 32.6232 -1.6483 -1.75742 0.0148539 0.0098832 0.150442 -0.0973158
172 2 0.994837 37.5503 0.095612 1.8683 -0.695365 3.4306 -0.439456 -0.20538 0.343195
173 2 54.362 0.473422 14.6153 2.47513 1.76023 -0.381578 -0.143327 -0.251372 -0.445478
174 1 14.8659 18.1792 33.7297 2.07734 0.118799 -2.05938 -0.181501 -0.199591 -0.160153
175 1 55.2341 13.066 4.10828 -0.643901 -1.29012 0.195088 0.591299 -0.237184 -0.0111183
176 1 31.8789 53.0882 24.6811 0.382779 -1.9213 -0.897252 -0.113854 -0.309279 0.259444
177 1 10.0313 8.78667 15.4373 -0.404058 1.4448 -0.21096 0.862226 -0.412152 -0.0902138
178 2 35.8794 0.359121 -0.379887 -3.80339 1.05978 -0.851194 -0.671951 -0.102856 -0.143754
179 1 7.5686 2.62192 49.4648 1.60176 -2.09086 -0.806282 0.192996 0.462061 0.182396
180 2 29.532 52.7278 8.53524 -0.845327 1.86229 -1.9646 0.463622 -0.419057 -0.357855
181 1 22.9062 8.85466 22.658 2.33763 -0.591941 -0.104231 0.017189 -0.865264 0.392002
182 1 52.2615 43.465 30.1932 -1.51709 1.56316 -1.69953 -0.471323 0.309826 -0.0237901
183 2 47.391 10.8156 21.8196 0.595535 0.684791 -0.407363 0.439183 -0.343191 -0.751716
184 1 19.0492 44.712 24.4732 -1.90546 -0.633851 -2.66208 -0.147863 0.120789 0.191178
185 1 29.972 4.54397 45.2474 3.93084 1.5605 -1.31085 -0.00437652 0.120974 -0.519247
186 1 56.4817 4.81143 31.5853 1.1555 0.991773 2.15776 0.161455 -0.0982952 -0.271155
187 1 44.4137 25.7504 3.77465 0.642671 -0.444811 3.0206 -0.793497 -0.11286 0.363062
188 2 23.9208 46.0401 2.60919 -0.656575 0.183556 3.46419 -0.17783 -0.0362039 -0.137144
189 2 -1.57077 52.1054 11.5708 0.0216943 -1.30289 0.905227 0.70821 0.111122 -0.294503
190 1 17.5641 42.7292 46.5055 -1.5726 2.21552 -4.16791 0.0925061 -0.446884 -0.1514
191 2 50.8849 42.9757 32.3788 -0.0280806 -0.398718 0.723591 0.074089 -0.325627 -0.551405
192 2 20.4651 46.9799 38.625 -1.16892 3.32196 0.0139765 0.0356634 0.562619 -0.278617
193 1 0.904082 26.2827 49.5686 -0.279291 -2.97487 0.775399 0.522184 0.0374873 -0.18991
194 1 13.4557 23.2742 26.2104 -0.65052 0.980389 0.546541 0.426332 -0.497611 -0.141618
195 2 14.3139 -1.45199 -0.635338 -0.24011 -0.779015 -4.52269 -0.248308 0.107437 0.4178
196 2 45.143 4.68129 11.6983 -0.85887 -1.32254 -1.40797 0.0704276 0.0380109 0.246823
197 1 24.5048 9.92749 39.1089 -0.356597 0.847187 4.26345 0.178001 -0.137346 0.0264068
198 2 8.80668 17.4332 5.2512 0.668833 1.93854 0.754336 -0.434422 -0.107228 -0.0448752
199 2 0.0914473 16.2527 31.3647 0.714181 -0.149377 -1.10624 0.271349 -0.140634 0.543123
200 2 41.8556 50.2742 28.1185 -0.440878 -2.32583 -1.43629 0.86468 0.655452 0.0127129
201 2 41.0682 37.4446 40.1086 1.19278 2.36944 2.61418 0.801525 0.384457 0.410388
202 2 20.2999 27.5415 3.10765 -0.126304 1.48964 2.26993 0.317269 -0.414631 -0.226265
203 1 21.9582 9.24404 5.72157 1.64577 -3.20585 0.905409 -0.362147 -0.0433324 0.410101
204 1 12.2984 44.4929 6.37962 0.845309 -1.51183 0.903064 0.248534 0.038334 -0.0353776
205 1 45.6273 30.8652 3.48792 -0.581906 -0.15429 -1.98186 -0.0293526 -0.533184 0.241153
206 1 52.9278 45.1701 25.6301 -2.58095 -0.998825 2.56096 0.463424 -0.748815 0.105768
207 1 21.4887 53.2696 13.0668 0.798385 1.98676 -2.36906 -0.107733 0.174957 0.447979
208 1 23.7658 41.0454 -0.222298 -4.31875 -1.59321 -0.49129 -0.103592 0.00354106 -0.183573
209 2 36.0457 47.992 17.984 -1.3888 -0.804301 -1.01245 0.287917 -0.547269 -0.264116
210 2 34.3724 5.69788 40.7336 2.06346 0.404989 -1.35358 -0.554572 0.182615 0.813892
211 2 20.3352 1.5869 11.4349 0.52275 -0.606194 0.573346 -0.583174 0.359012 0.200161
212 2 -0.457332 21.2895 27.2129 1.21067 0.315803 2.74053 -0.213739 0.661036 -0.0977462
213 2 1.2456 45.8342 17.4753 1.36744 -0.192473 -0.747387 -0.63166 0.383407 -0.279209
214 2 23.6376 25.4155 27.3576 0.279345 -0.160068 0.817744 0.0873829 -0.592608 0.00228355
215 1 12.4224 12.5761 18.9735 0.127907 1.98774 3.65735 -0.140354 -0.0593936 0.0731088
216 1 2.42598 52.0248 43.5517 -0.52282 2.31803 1.06629 0.144451 0.180445 0.146095
217 2 24.6739 2.68395 27.4187 1.17504 -0.220217 -0.652599 0.2747 0.0352684 0.506719
218 2 46.6997 42.1819 14.5252 -0.467544 -0.2294 -2.08167 0.112588 0.0953492 0.150843
219 2 30.6185 0.0206964 7.93981 -2.67333 0.425284 1.25789 -0.660164 -0.352146 -0.368796
220 1 22.5314 18.0472 2.53517 0.608853 -3.02465 2.75142 -0.132922 -0.0710828 0.376779
221 1 23.849 0.413641 14.3784 -0.19871 0.556933 -1.07515 0.504478 -0.0928953 0.00811416
222 1 50.9453 26.7655 9.86664 1.57323 -2.51508 -1.08486 0.744774 0.221725 0.17135
223 1 19.875 4.38358 -0.32844 -2.46096 -0.299379 -2.13679 0.381749 0.383209 -0.20619
224 1 55.6834 57.0343 5.79664 -1.78826 -1.14194 2.74604 -0.162893 -0.208968 -0.149586
225 2 32.2382 3.32993 49.5428 -1.5382 -0.812413 0.265209 0.531976 0.467296 -0.0219719
226 2 9.8683 2.70247 26.537 -0.383487 1.50483 1.014 0.134135 0.0601489 -0.0308801
227 1 29.3411 17.6334 34.4471 0.2426 0.718927 -0.317212 -0.15937 -0.555036 0.819131
228 1 37.4887 2.21274 54.3432 -0.304085 -1.76147 1.435 -0.398496 0.0665782 0.199794
229 1 54.597 0.139928 26.6186 1.31107 3.52333 1.35834 -0.592843 0.180444 -0.173181
230 1 14.0494 1.79102 24.902 -1.08769 -1.73422 1.02103 -0.0230483 0.498094 0.0579667
231 2 55.7165 40.4453 28.8642 -1.21172 0.182915 -0.700458 -0.513126 -0.069257 -0.543179
232 2 36.8021 38.1626 15.4735 0.716199 -0.644459 -0.869907 -0.197554 -0.14768 -0.211865
233 2 26.8467 30.1488 10.4996 0.264782 1.71045 -0.672752 -0.206039 -0.107102 -0.434417
234 1 8.42044 17.1794 2.34712 2.72522 1.1771 0.233786 0.507529 0.501173 0.203214
235 1 19.201 53.0891 2.64473 1.72386 -1.34924 1.70372 -0.115566 -0.0362969 0.364137
236 2 1.03589 11.8334 -0.900855 1.35374 -0.492752 -0.70876 -0.861289 -0.896231 0.592217
237 1 2.95239 18.342 51.1866 -0.012918 -2.65789 -0.820937 -0.00282082 0.383598 -0.31774
238 1 30.7995 48.1457 47.8128 -0.868635 4.37896 -0.762074 0.806529 0.615026 -0.955858
239 2 -1.4829 19.2281 46.1319 1.88776 1.60348 1.73898 0.73432 -0.333138 0.151284
240 2 28.595 49.7461 8.56878 -2.26645 1.12014 -1.60167 -0.0267594 0.0484464 -0.349932
241 2 51.9296 6.55306 36.5496 -1.96383 2.89718 1.83366 0.255254 -0.0456977 -0.658663
242 2 41.2996 56.719 46.8947 0.840535 -0.14243 -0.542876 -0.466502 -0.00733375 -0.0229218
243 1 10.1988 55.7808 41.1814 3.67995 -0.8003 2.10663 -0.266999 -0.290663 0.427695
244 1 37.9385 46.7536 30.712 -0.715426 0.894716 0.725686 0.494633 -0.290613 -0.703417
245 1 16.5313 21.8336 12.4032 -0.220383 -0.654205 -0.664607 0.154975 0.536092 -0.485793
246 2 26.0195 53.6564 20.2426 -2.7747 -1.2953 0.138383 -0.167734 -0.553337 -0.384153
247 1 47.4986 34.441 39.0437 -0.875847 1.78695 3.1545 0.161829 -0.249225 -0.217446
248 1 14.2242 3.1161 1.33439 2.25634 -2.58703 -1.50088 0.444672 -0.0995388 0.272172
249 2 13.2307 14.1372 45.9562 -1.82638 2.8492 1.59182 -4.23255e-04 -0.656672 -0.0755922
250 2 1.75711 -0.19812 12.0033 -0.0136661 3.02006 -0.163279 -0.274255 0.362611 0.163213
251 1 15.9821 55.7219 2.41294 -0.7908 -0.169681 -1.37732 0.668902 0.673554 0.405359
252 2 14.3421 16.6038 15.9675 -2.15402 -0.313011 -2.68598 -0.532845 -0.466311 -0.0378126
253 1 9.61401 23.6549 43.912 0.311301 -2.39386 3.38731 0.261531 0.429882 -0.00223877
254 1 0.393284 49.3484 5.13765 2.29394 2.21687 -1.68654 0.268261 -0.499382 0.160511
255 2 19.3908 42.258 31.75 1.75698 0.553253 -0.599664 -0.606145 -0.172013 0.283909
256 1 25.8548 54.9875 44.3246 4.31135 0.369764 0.274142 0.0929538 -0.0791291 -0.325112
257 1 14.4245 34.9398 26.1565 1.03785 -1.51097 -0.929142 0.758595 -0.434704 0.290565
258 1 50.476 50.1588 17.261 0.218468 -1.05317 2.58666 0.398067 -0.229195 0.252589
259 2 0.88834 0.337712 49.256 1.83827 -1.55956 1.51213 0.312228 -0.125346 0.566596
260 2 42.6893 51.2666 4.85626 -1.80272 2.21424 -0.146521 0.0374017 0.124309 0.443502
261 2 28.277 3.89199 33.6427 3.91527 -0.489267 -2.22063 -0.236281 -0.145817 0.392379
262 2 29.3975 16.6293 -1.38862 -0.589454 -2.69874 2.28685 1.06757 -1.0906 0.391013
263 1 25.8648 23.3981 19.4757 0.309255 -0.519539 2.76045 -0.317025 0.215518 -0.609058
264 1 47.5707 35.57 11.0128 2.01473 3.63349 -2.60872 0.294727 0.644548 0.206166
265 1 15.6669 47.0851 33.3383 -1.83399 -3.18951 -5.56653 0.410363 0.21149 -0.158414
266 2 13.5336 4.3366 10.4858 0.100236 0.056782 0.671399 0.349322 -0.0269824 -0.0350113
267 2 9.65588 24.2739 40.9807 -1.42331 -1.00008 1.04948 0.0507991 -0.206377 -0.25903
268 1 12.7204 20.1949 29.7793 2.30526 3.0623 -3.94557 0.151547 -0.310356 0.618653
269 2 4.73024 5.23418 57.1538 2.20344 1.00922 -1.04668 -0.0490316 0.845159 -0.004041
270 2 54.4295 47.2912 40.1925 0.380122 -3.40209 -3.05373 -0.71987 0.437969 0.169881
271 2 45.3099 18.7875 22.5927 -3.24303 2.50801 -1.73556 0.00657435 0.179057 0.0962213
272 1 5.02743 34.187 23.0153 -3.30314 -0.405306 1.58589 0.030664 -0.68906 -0.330883
273 1 24.4838 14.0873 56.7251 3.99409 0.72095 -2.0264 0.135616 0.258156 -0.160003
274 1 48.6232 10.3827 38.5395 -1.52911 1.40121 -1.56829 0.273994 -0.257641 0.128735
275 1 20.9534 7.39902 46.1097 1.81673 -0.796546 1.6199 0.444079 -0.20841 -0.133484
276 1 8.15534 33.5996 35.8365 2.04392 -0.891189 -0.292675 -0.235104 -0.520682 0.215209
277 2 8.04209 26.9913 37.0064 0.204892 0.985361 0.948376 -0.0944537 -0.0441715 -0.391764
278 2 40.2179 12.2181 11.3418 2.16433 3.86092 -2.36816 0.367514 0.671119 -0.589409
279 1 23.6403 41.9174 8.0149 1.43562 -0.982059 -4.98129 -0.211323 0.172624 -0.0787946
280 1 37.2103 47.426 46.2401 -0.764719 0.885557 2.20683 -0.175657 -0.0144994 -0.0294269
281 2 50.6633 22.0908 5.40725 -0.64841 -0.387932 0.303136 -0.422822 0.585497 0.38892
282 1 49.9285 6.45612 53.3708 1.11878 2.56262 2.43817 -0.365427 -0.0684532 -0.396306
283 1 7.323 1.94418 9.67636 -1.34842 0.536447 2.40843 0.0358324 0.111568 0.501371
284 2 41.4207 32.2905 29.1768 1.91439 -1.77172 3.8797 0.579666 -0.283068 -0.108851
285 1 34.1802 13.7261 38.7585 0.275485 0.262978 0.656051 0.345826 0.754567 -0.0918247
286 2 -0.0900724 45.9178 0.720276 -0.58098 -0.145103 -2.94553 -0.259073 -0.144133 0.324509
287 1 27.0905 51.9359 53.4103 1.50509 -2.037 -0.810344 -0.521075 -0.0790316 0.066511
288 1 11.8995 23.9433 44.9372 -1.1785 0.523885 1.17098 0.209911 -0.0344062 0.014379
289 1 -1.03321 14.4249 24.4819 -4.58446 0.481432 1.96605 0.231033 0.339427 -0.394016
290 2 9.89459 3.96672 45.4141 0.905317 -0.786997 -1.19854 -0.447016 -0.376011 -0.54931
291 2 15.6628 27.3796 52.6674 0.824668 -0.296068 1.38639 0.0498462 0.39348 -0.11353
292 1 13.5098 16.1795 48.0114 4.08311 0.485113 0.904935 -0.605466 -0.104402 0.218677
293 1 26.9547 52.4179 37.309 -1.73523 0.811545 -2.62147 0.0894617 0.394737 -0.515659
294 1 48.0826 26.1743 33.0091 1.74498 0.922893 -5.40772 -0.473128 -0.228849 0.181735
295 2 48.1456 53.4889 15.9653 1.38581 -1.30027 -1.45428 -0.129861 0.452303 0.154763
296 1 49.5616 4.76464 26.9342 0.489238 -1.78361 -0.228703 0.307157 0.105437 -0.235714
297 1 48.9351 55.1682 10.7654 -2.63714 -1.24756 -1.21283 -0.25948 -0.420495 -0.105671
298 1 33.552 40.0108 43.7019 -2.81409 -2.21143 -0.984656 -0.772439 -0.585563 0.367972
299 1 24.5459 40.2931 19.9883 -1.92885 -0.0561813 -0.77918 0.339702 -0.225996 -0.362838
300 1 49.3529 39.0798 23.6992 -1.67333 0.363613 3.03071 0.0721753 0.053244 -0.250646
301 1 24.1873 19.3863 40.9759 -4.75854 -0.530113 0.573514 0.479022 0.351536 -0.274227
302 2 36.5672 31.9111 36.275 0.836812 -2.52551 0.702407 0.179656 -0.455287 -0.358673
303 1 11.7862 3.61196 36.1715 -1.65723 2.29916 -2.68348 0.467712 -0.158659 -0.0991321
304 1 0.84832 43.1903 25.0244 -3.60282 -2.37048 0.548175 -0.367109 0.00488752 0.361077
305 1 4.58469 3.44201 0.0112726 1.76703 0.0939365 -3.55399 0.268006 -0.458129 0.724461
306 1 1.8305 54.6353 51.9646 -1.11278 -0.470929 -2.82862 0.0728452 -0.944216 -1.38724
307 2 51.3607 16.1172 41.8362 1.89191 0.165077 -3.88565 0.243842 -0.203672 -0.339892
308 1 9.11658 -0.304556 36.3696 -1.62353 2.72086 1.95494 0.582809 0.00170336 0.0370331
309 1 1.4894 52.1111 15.0352 0.367181 3.59378 -0.86837 -0.229711 0.360449 0.308722
310 1 45.4146 47.086 24.4757 -1.22192 -3.3203 -0.806264 -0.471251 -0.144132 0.0397405
311 2 18.8184 21.9316 48.1843 0.222595 0.257253 -2.51873 -0.210229 0.0490688 -0.302929
312 2 6.79446 40.6773 5.94891 -0.887967 -1.32595 -0.0501027 -0.0707586 0.199392 0.0827389
313 1 55.2425 17.529 7.41135 0.969883 -0.395325 -1.47901 -0.204963 -0.204013 0.130348
314 1 56.0444 24.8583 47.6831 3.3985 2.37365 0.424442 -0.174353 -0.0214893 -0.0412918
315 2 32.5828 25.512 48.8246 -2.50201 -0.0990135 -2.07663 -0.0569935 0.659262 0.0651805
316 1 45.4726 32.1683 35.6662 -6.27063e-04 -0.447018 -1.01607 0.445045 -0.26433 0.217261
317 1 16.046 41.5968 50.397 1.84572 -3.358 0.669309 0.345784 -0.339265 0.117745
318 1 42.1109 -0.0285256 2.82367 1.94657 1.56521 1.67359 -0.326743 0.0168631 -0.293472
319 2 44.7488 56.0771 32.5207 -2.47895 -1.75119 0.279471 0.438325 0.330032 -0.0504833
320 1 53.3689 35.522 36.8506 8.39572 1.30786 1.18298 0.405069 0.684253 -0.725141
321 2 12.8872 22.581 6.63064 -1.61525 1.96507 -0.757226 -0.506831 -0.128349 -0.52643
322 1 16.8503 37.3895 5.70113 1.867 0.150208 1.3743 0.287596 0.169142 -0.0822956
323 1 44.0307 7.8692 42.5539 -1.83421 1.21363 -1.3999 0.340146 0.277366 0.22953
324 1 51.8426 38.0883 31.6134 2.87742 0.0625782 -1.2007 0.0893782 0.248828 0.276403
325 1 14.7265 16.8564 50.1301 -1.71705 0.709646 -2.71505 0.227275 0.536177 -0.118762
326 2 39.7045 0.577484 4.14355 -0.432934 0.113911 -3.97272 0.147831 0.191975 0.363793
327 2 21.2794 -1.34316 38.8495 -0.9914 1.59657 -0.0522941 -0.174274 0.101243 0.261781
328 2 28.0554 51.5632 31.7268 0.407219 1.36482 -1.42155 0.240109 0.316834 0.33625
329 1 56.7475 8.88838 9.31419 2.97098 -4.08643 -3.28617 0.204644 0.059381 0.261999
330 2 40.9856 20.9533 30.1581 0.831743 1.05549 0.587786 -0.51249 -0.529675 -0.390886
331 1 11.426 51.6626 3.24411 1.28706 -1.80551 -1.28668 -0.308077 -0.150975 0.29412
332 2 28.6802 18.5326 30.0081 1.87444 0.0645077 1.19032 0.31063 -0.259195 -0.0489696
333 2 15.9236 52.7102 47.6715 2.13721 2.04138 -1.71441 -0.0153769 -0.319204 -0.0810833
334 2 44.9783 51.2929 50.8153 1.58594 1.69918 -0.0679522 0.374256 0.20818 0.262699
335 2 8.8087 29.253 4.50173 -0.848673 0.639658 0.338896 0.535102 0.463034 0.723587
336 1 5.35735 50.5461 5.44722 0.687704 0.248078 2.82736 0.0272165 -0.193198 0.13536
337 2 48.6458 29.7461 43.1945 -2.43193 1.57471 -1.56884 0.0476648 -0.147882 0.0177015
338 2 30.4076 12.4729 23.1717 0.0121797 -4.35626 -0.230568 0.361 0.100758 0.0566875
339 2 4.60064 21.6327 56.1791 1.27171 -0.474616 -0.0044289 -0.217472 0.0670264 0.204209
340 1 23.0057 0.375566 53.8432 1.94442 1.16699 0.969929 0.150411 -0.0116289 0.0879651
341 1 43.9223 15.2827 38.3218 -0.400315 -3.23974 -1.70043 -0.140436 0.465929 -0.276587
342 2 0.421393 5.28247 25.7719 0.560464 -1.05174 1.03102 0.187446 0.124575 0.430747
343 1 18.9356 44.2771 13.0621 2.82631 0.630133 -1.77326 -0.350165 0.178573 -0.192087
344 2 29.2773 29.6302 12.8154 -1.47846 0.18327 2.78799 0.260119 -0.209251 -0.396108
345 2 4.26513 34.3727 17.9754 -1.86143 -1.1943 1.30259 -0.143237 0.174021 -0.068415
346 1 52.6466 34.2606 34.4376 3.03062 2.03685 1.03642 -0.439565 0.548798 0.128811