ITEM: TIMESTEP
22350004
ITEM: NUMBER OF ATOMS
11664
ITEM: BOX BOUNDS pp pp pp
-1.57567 57.3757
-1.57567 57.3757
-1.57567 57.3757
ITEM: ATOMS id type x y z vx vy vz fx fy fz
1 1 28.1374 33.5289 0.672491 -0.194709 -2.98012 -0.209182 0.632484 -0.0403905 -0.11969
2 2 30.0378 5.63706 31.417 -1.34357 -0.041469 -1.62712 -0.146067 -0.490946 -0.0984376
3 2 30.6116 53.7917 15.8962 -0.28507 0.0493646 -1.66561 -0.564886 -0.487311 -0.436516
4 1 40.1686 10.4008 8.78171 -2.7319 0.804202 -1.13198 -0.0605443 -0.100081 -0.177163
5 2 46.0204 55.7501 56.715 0.863246 0.705577 1.63661 0.349595 -0.301848 0.159462
6 2 37.6808 28.6361 15.9191 -0.85729 -0.0673417 -0.0487311 -0.115051 0.814405 -0.10074
7 2 49.3413 10.7801 30.9869 0.992546 -5.19286 -0.515431 0.204875 -0.108012 -0.619193
8 1 -0.242461 0.186412 19.1902 0.739594 -1.16957 3.91429 -0.278071 -0.647958 -0.266134
9 2 10.4501 14.5286 5.44691 -0.0389837 -2.6274 -1.67004 0.0422224 -0.325428 -0.0980706
10 2 30.4043 54.0399 32.4265 0.104793 -0.834673 2.24336 -0.513721 -0.272637 -0.113422
11 1 6.39799 30.6629 46.8993 2.96749 -2.67933 -0.166315 0.628954 0.812587 -0.540187
12 1 46.736 25.0856 40.471 2.07006 -0.533005 1.97878 0.166641 0.167243 -0.107296
13 2 50.5068 45.5007 13.4613 -1.99272 0.178946 1.04942 -0.648171 0.0172056 -0.240565
14 1 55.7299 27.5378 53.5139 -1.89766 -0.773992 -1.88025 0.201616 0.139971 -0.244462
15 1 -0.398416 43.4826 36.9949 2.80466 -3.93013 2.49611 0.624365 -0.179002 0.292935
16 2 29.5685 43.3034 26.9282 -0.252009 -0.868268 -2.09309 0.12982 0.0311835 0.161069
17 2 54.2331 39.6912 24.6049 -4.49568 3.50257 -1.65968 -0.160737 0.0896784 0.0180508
18 1 8.42344 1.48235 47.2248 -1.69746 2.65048 0.41225 0.121189 -0.772425 -0.0537786
19 1 44.4252 17.6658 41.9277 -3.66876 -0.668578 -0.464261 -0.0771539 -0.19689 -0.289724
20 2 29.3863 15.3496 46.2773 0.497809 0.311219 -1.80462 0.230169 0.0172102 0.224242
21 2 16.2453 24.4107 5.05991 -0.779281 1.33794 1.73468 -0.312554 0.506875 -0.770674
22 2 12.2402 19.8148 10.9449 -1.19697 -0.190573 0.760811 0.0984787 -0.0452828 0.131525
23 2 10.4372 12.5211 56.3427 1.06951 -1.73822 1.08597 0.352616 0.211314 -0.0584844
24 1 10.3748 30.766 45.7675 -2.2903 2.49508 -0.00401506 -0.194486 -0.64201 -0.184273
25 2 52.2633 41.1026 -1.29017 -0.0895482 1.51874 0.850979 0.187322 0.243903 -0.135494
26 2 12.9226 9.40537 46.3992 0.816617 0.270064 1.06229 -0.427127 0.165923 -0.252025
27 1 13.0923 2.99326 8.30655 0.877244 0.290492 0.0548034 0.750257 0.397691 -0.493656
28 1 28.9746 51.3136 15.7132 -0.142206 -0.0613592 1.78954 1.00103 0.292821 0.388898
29 2 27.0023 38.5035 2.67192 0.408237 0.438806 4.74707e-04 0.0238779 0.475647 0.689769
30 1 32.8159 31.0233 17.3252 -2.02582 -2.9001 -0.52826 0.797157 -0.192548 -0.23814
31 1 49.4264 32.3799 32.043 -1.07441 1.94864 0.376507 0.0739279 -0.840294 0.304906
32 1 38.6534 11.0552 38.6537 -2.54614 1.15981 0.33127 0.149543 -0.661152 0.149271
33 2 25.3348 3.36135 12.2565 -1.61326 0.611451 -0.0990473 0.574271 -0.327151 0.260859
34 1 6.43651 30.7099 39.5536 1.67368 -1.97871 -0.110906 0.146699 0.050735 -0.153774
35 1 33.4518 30.8901 54.6625 -1.93624 1.75706 0.362664 -0.790911 0.0558307 -0.363655
36 1 21.9179 8.01691 55.9569 -1.99733 0.472965 2.44717 0.0856581 -0.200481 -0.30024
37 1 4.57777 57.3233 28.5599 0.978102 1.17073 -1.02775 0.00666984 -0.13818 -0.0724868
38 1 35.2346 53.1851 13.3265 -0.937344 -2.63631 -0.0139162 -0.986251 -0.114017 -0.19414
39 2 0.678914 15.0102 -0.720559 2.14487 -1.0768 0.538917 -0.166375 0.137771 -0.0578631
40 2 34.1325 44.0463 -1.03178 -0.756552 -0.546973 -0.103843 -0.541882 0.693563 -0.505346
41 1 41.7162 15.2141 29.0424 -1.23664 2.01733 0.37275 0.430075 0.19532 -0.305852
42 1 8.54468 53.8297 20.3372 0.14894 1.15114 0.508641 0.16318 0.0382835 0.034964
43 1 10.3396 39.3354 15.0003 3.31122 -0.219402 0.97533 0.312928 -0.278646 0.180029
44 1 39.7439 30.5905 15.6482 1.93691 -0.405297 0.338538 -0.54846 0.0514525 -0.288542
45 2 1.0373 35.4548 7.36642 -0.293644 0.599936 0.510582 0.555111 0.10799 0.502767
46 2 3.8448 30.3766 27.8632 1.96787 1.1777 -2.37851 0.265775 -0.0122591 -0.341279
47 2 4.94246 25.5084 12.9932 -0.464597 1.2865 0.0830459 0.0305328 0.0121201 0.572625
48 2 56.81 50.0725 51.9092 1.2763 -1.23383 -2.16277 0.238485 -0.613803 0.199846
49 1 23.6781 6.94375 0.179188 0.410621 -2.70041 -1.86062 0.104558 0.115746 -0.879869
50 2 23.5699 51.0056 17.1948 -1.59065 -0.373999 1.21029 0.154595 -0.691282 0.258557
51 1 11.7881 20.1438 42.7958 -4.20405 3.64952 -2.00047 -0.372261 0.444559 -0.402058
52 2 10.2675 24.4534 24.4498 -1.30325 0.948772 -0.53309 -0.449222 0.0282503 0.145835
53 1 46.6697 31.6616 41.405 -0.523994 0.294504 0.5255 0.377086 -0.476302 -0.22228
54 1 13.3992 3.40727 49.5674 1.05138 -0.436577 1.97565 0.136146 -0.433718 0.129141
55 1 19.8522 5.61425 5.67167 -1.03143 2.98688 1.37364 0.78962 0.454799 0.0381475
56 1 36.2322 11.1255 9.18238 3.52994 1.45063 1.12888 -0.313495 0.316122 0.64945
57 2 3.76965 55.224 41.579 -1.71616 0.143698 -2.30759 0.461625 0.26635 -0.00786972
58 2 44.1499 36.8073 29.9408 1.38665 -2.22737 -0.556337 -0.328459 -0.472005 -0.677312
59 1 6.51461 2.16678 23.3927 -0.692079 -2.31135 0.104099 0.391358 -0.920551 -0.416047
60 2 29.4692 40.02 27.7404 2.20708 -1.01034 -1.71042 -0.249067 0.24144 0.165564
61 2 27.6373 45.0728 29.1261 -3.06323 -1.29417 -1.6141 -0.210288 -0.412643 -0.0858551
62 1 12.831 11.7114 8.18512 0.028563 0.410754 0.855012 0.585235 0.248043 -0.649938
63 2 7.29637 24.8028 15.0083 -0.426152 -2.38384 1.05079 -0.376543 0.835173 0.102448
64 1 26.9751 0.618425 4.33713 -2.61194 0.0294083 -0.284062 -0.335678 0.0236312 0.138949
65 2 55.7566 0.296521 53.9655 -1.85913 -3.21896 3.37292 -0.584386 0.0836946 0.0560761
66 1 4.34445 6.38677 8.26718 -1.5479 0.887322 -2.81668 -0.268835 0.739442 -0.0597032
67 2 23.3939 1.12751 11.6823 -0.720103 0.531302 -1.31037 -0.0107689 0.625365 0.345212
68 1 48.5392 45.0853 38.1179 2.82299 -2.0684 2.91989 -0.302912 -0.677475 0.137067
69 2 24.2491 18.3253 48.6575 -0.0138718 -0.132336 -0.167674 0.0989988 -0.252325 -0.0988055
70 2 6.91895 32.6065 55.3447 -0.622738 2.70341 1.54155 -0.330127 -0.70381 0.568875
71 2 41.8852 22.7228 49.1859 1.64474 -1.68684 -2.14682 0.0452232 0.0519502 -0.249655
72 2 6.77807 0.154313 49.6021 1.92693 -2.25294 1.23929 -0.134309 -1.10695 -0.589498
73 1 48.5471 37.5175 19.414 1.37422 0.0745088 -1.81979 1.172 0.577377 0.557608
74 1 25.2416 3.77012 24.6639 1.49961 -1.40169 0.122147 0.00802661 -0.125435 -0.482713
75 1 53.6868 0.723647 23.664 -0.270818 -0.0625855 2.66361 0.724387 -0.253339 0.118377
76 1 55.851 6.52584 42.1122 2.20146 -0.4354 -0.975716 -0.408188 -0.19723 0.236977
77 2 52.5199 56.3738 13.9248 0.0229123 2.18408 -1.6167 0.0455719 0.248677 -0.329002
78 2 3.48903 48.3988 27.3248 0.0423503 -0.367556 -0.484762 0.0940762 0.690964 0.111095
79 2 25.1861 -1.4147 44.3026 1.29683 2.15487 0.345626 -0.228869 -0.160046 -0.310972
80 2 21.8236 3.01925 5.22941 -1.58059 1.25337 -1.45112 -0.800822 -0.173844 0.502136
81 2 30.3249 21.9521 17.3441 0.212924 -0.939431 -0.919285 -0.419274 0.515881 0.0944556
82 2 36.3428 21.7557 47.1341 1.43135 -0.778003 -2.29165 0.0575242 -0.45085 -0.497503
83 1 50.4311 19.8845 4.21886 -2.54413 -0.247558 2.77502 0.0519509 -0.740786 -0.0750516
84 1 43.2389 35.2525 47.8062 -0.306522 -1.05729 -0.635436 -0.258168 0.209138 -0.370279
85 2 7.65574 20.562 51.9972 0.736198 -0.123734 -3.43213 -0.0126334 0.908143 -0.343048
86 1 43.462 44.4512 43.18 3.75866 5.33809 -3.85552 0.202325 0.50213 -0.307054
87 1 42.7693 24.6458 47.3004 0.231202 -0.504819 1.94877 -0.110884 -0.476935 0.190678
88 1 46.1439 29.3092 42.2083 1.92388 2.63922 -0.810005 -0.0857414 -0.572363 0.240058
89 2 44.556 41.7779 43.5824 0.358556 2.11456 1.2722 -0.107797 -0.401135 -0.0853487
90 2 27.1538 23.3518 -0.979093 2.27985 0.174761 -0.033677 0.0251237 0.293248 0.193661
91 2 12.3649 52.1429 46.4615 -1.22871 1.23213 0.013469 0.181621 0.0358975 0.26256
92 2 19.4663 3.19048 24.9545 -2.464 -0.345185 -0.0777979 0.100239 -0.0292926 -0.735717
93 2 25.9007 34.9804 21.1464 -2.21139 1.04393 -0.80346 -0.150404 -0.170019 -0.507659
94 1 34.0222 53.9529 7.94581 1.4785 -2.2255 1.22379 -0.240069 -0.390067 0.249778
95 2 36.9276 29.2405 56.205 -0.706285 -3.01698 0.568559 -0.573133 0.171218 -0.20767
96 1 22.1486 9.79964 10.0566 0.393325 1.39579 -0.567956 -0.210824 -0.0260438 -0.0971333
97 1 18.9777 30.8022 6.36567 2.56165 1.2239 -1.33913 -0.890103 0.058764 -0.154907
98 1 7.50908 51.2581 26.2525 1.81464 1.72574 1.115 0.134461 0.0794388 0.137376
99 2 7.75828 28.2379 16.1187 2.59239 0.0307678 -0.0250344 0.482487 -0.126771 0.483571
100 2 7.22023 3.01407 30.4487 -1.842 0.7344 0.274051 0.0145253 0.404602 0.188476
101 1 3.67283 26.2294 57.1724 -3.4181 -0.186303 -1.27787 0.342784 -0.472693 -0.101491
102 1 15.4914 13.0325 39.957 -1.29334 -1.06696 4.83979 -0.572143 -0.421186 0.254183
103 2 12.957 2.38235 54.4454 -3.70915 1.16442 1.41604 -0.0574127 -0.839275 0.101778
104 2 0.93447 28.6805 15.1598 1.18153 0.67069 -2.83011 0.624544 0.396965 2.25264e-04
105 2 33.9792 32.5311 4.62541 -1.82034 2.93364 -1.19606 -0.12754 -0.427456 0.539486
106 2 21.3066 44.5669 0.871415 -3.49039 -1.71027 1.21689 -0.00668261 0.339827 0.357325
107 1 54.1158 12.1063 2.16024 2.85728 -0.83781 1.1764 0.596295 0.337262 0.504677
108 1 26.7126 51.8528 8.17916 -1.97794 -3.16754 2.89207 0.0885437 -1.02294 0.0383891
109 2 28.9172 -1.46909 20.3224 -0.0757964 2.50312 -0.56584 0.0965578 -0.164796 -0.00326132
110 2 20.2432 55.4095 31.2249 -2.58173 -1.38386 -1.02332 -0.147221 -0.879597 0.354076
111 1 21.891 9.5995 14.6674 -2.58499 1.80706 0.334853 -0.480294 -0.160973 0.435346
112 1 48.3546 55.514 50.2031 1.45192 4.00706 0.0490992 -0.104802 -0.720922 0.0541727
113 2 48.1464 29.4905 33.4782 0.915932 -0.469588 3.05165 -0.0360665 -0.539496 0.0192111
114 1 53.7272 47.3263 20.6962 -3.38006 -1.07678 -2.26987 -0.215067 -0.174547 -0.0134513
115 1 56.0412 56.5064 38.1451 -0.927501 1.48601 -0.648128 0.419624 0.172397 0.324675
116 2 33.7205 42.923 13.1744 4.17461 0.243332 -0.547561 0.603182 -0.425996 0.00442225
117 1 17.2516 55.5004 14.1186 2.85113 -2.0737 0.491188 0.522693 -0.493479 0.451301
118 2 4.25882 32.4131 20.665 -0.278028 -3.38898 0.636585 -0.21565 0.0426224 0.211074
119 1 38.5317 8.16928 50.0 -1.62259 -3.23612 0.856824 -0.361894 0.154194 -0.225151
120 2 33.568 32.3696 35.9644 -1.79702 1.4914 -0.550042 -0.107129 0.178628 -0.307625
121 1 16.8279 36.3903 36.8979 0.45746 1.48531 -1.55284 -0.740639 0.319465 -0.22113
122 2 1.30582 17.7642 53.1527 1.40708 -1.50049 2.32195 -0.0681084 -0.323507 0.522252
123 2 11.4747 11.0058 16.6829 0.340503 -1.97833 0.0349206 -0.107116 0.125777 -0.230591
124 2 49.0286 54.589 26.389 0.667345 0.0903144 1.16412 0.128778 0.250872 0.029126
125 2 48.9325 10.4485 10.8038 2.52357 -1.08232 -1.78066 -0.0510117 -0.411252 0.43757
126 2 54.4411 13.0455 45.2353 -1.12901 2.08332 2.05348 -0.385037 -0.898757 0.342856
127 1 1.79478 50.2841 23.1066 -1.34606 -3.46044 -0.547759 -0.438736 0.229222 -0.541365
128 2 39.452 49.3588 39.1825 -0.364213 -0.83997 0.388916 0.264702 -0.0500427 -0.660368
129 2 31.5313 19.1168 35.7205 -2.06002 4.02679 0.710045 -0.832748 0.468898 0.319804
130 1 13.5664 7.86882 41.4392 1.34587 1.97909 -1.33328 0.281647 0.0518065 0.324762
131 2 9.44742 35.9312 11.5643 -0.0839972 -1.14029 1.3939 0.178796 0.621047 0.410607
132 2 22.1858 10.0425 -1.10164 -1.09708 -4.16957 -0.551618 -0.209592 0.202934 -0.237917
133 2 43.9491 39.9548 32.9532 -0.0233826 -1.1177 0.670379 -0.554825 0.346623 0.210466
134 1 47.2565 38.0344 10.5565 -1.64164 1.70759 -0.170948 0.358508 -0.0607358 0.172207
135 1 4.15149 8.49378 34.9832 2.59694 0.374615 -2.18379 0.317305 0.553874 -0.703703
136 2 56.1099 27.3585 46.68 -0.973016 0.45522 -0.0295809 -0.224799 -0.00795959 0.0955856
137 1 23.6718 5.71132 14.3951 0.819747 2.50177 -0.443772 -0.515942 0.0131582 -0.17033
138 1 13.4757 29.9912 51.5788 1.03093 0.739641 -0.56064 -0.165619 0.153753 -0.127287
139 2 39.4676 57.236 30.3802 -1.82809 0.34961 0.840282 0.0677692 0.0234443 -0.094829
140 1 14.4395 5.66502 40.4188 -4.13115 2.31171 3.88803 0.292415 0.0860556 0.352724
141 1 47.1674 7.39277 23.6397 -0.521767 -0.575537 0.194281 0.290347 0.444633 0.142909
142 2 23.7537 31.2177 53.6178 0.895771 -0.708507 2.55946 -0.0438662 0.406723 -0.0105761
143 2 4.09153 9.09817 10.175 0.781906 2.18625 2.52656 -0.151007 -0.127088 0.0317076
144 2 22.1852 19.4847 53.6964 -0.740687 1.86755 2.69838 -0.5445 0.154561 1.09143
145 1 55.2066 42.7628 49.4701 1.66549 -0.20083 0.855813 -0.685349 -0.0821778 -0.0735875
146 1 50.2727 34.2292 8.88919 -1.21643 1.86691 -2.27903 -0.338506 0.168931 0.0435174
147 2 20.0923 52.6318 9.77201 -2.5313 0.220826 1.43618 -0.147907 0.571644 0.149193
148 2 47.3265 34.9273 45.2828 0.367101 0.895629 0.0469394 0.379393 0.190625 0.460293
149 1 13.0702 14.3954 33.432 1.99755 0.337651 2.66811 -0.328698 0.430933 -0.763305
150 2 23.0715 57.2938 41.4365 0.58301 0.339997 -0.985261 -0.129792 0.999449 0.58841
151 2 12.6057 18.7782 49.0412 1.03516 2.38904 2.34848 0.329249 0.197707 -0.228477
152 2 7.96948 22.0776 24.7708 0.320495 -2.54892 1.39617 0.577734 0.458182 -0.66793
153 2 48.9989 29.5905 26.0421 -3.35942 -3.03006 2.68426 -0.502587 0.0119809 -0.350519
154 1 32.4243 1.83067 6.67228 2.82822 -0.0846035 -1.79242 -0.0706628 0.632615 0.461694
155 1 23.6926 9.51244 17.1786 1.37371 -1.39008 3.35412 0.31301 -0.269464 -0.0947835
156 2 29.8689 42.9866 50.1935 0.542942 -2.3967 0.286488 -0.779075 -0.349247 -0.165997
157 2 54.9748 -1.4481 12.173 3.16654 -0.427137 0.228282 -0.267999 -0.122885 0.183719
158 2 10.9572 43.7762 55.5832 -2.24305 -0.685039 0.4972 0.152489 0.0415177 -0.0149221
159 2 19.6905 23.9533 45.7997 -0.0420945 -1.40838 -1.90765 -0.314988 -0.386991 -0.332909
160 2 40.7378 34.7578 17.5346 -0.406586 0.768517 -1.2178 -0.0375443 0.433771 0.0653901
161 2 38.1927 8.38374 38.0708 -0.212868 -0.749951 -1.71147 0.181829 -0.0632083 -0.0968341
162 1 18.555 25.6827 16.695 1.34291 1.24809 0.458071 0.121382 -0.0998618 0.116969
163 2 16.311 49.9866 56.2068 0.688532 0.372686 1.55608 0.295853 0.185611 -0.312292
164 2 49.7678 6.70661 6.38517 0.207916 -2.71566 0.0170688 -0.30246 -0.522513 0.0146143
165 1 49.1807 27.1252 5.80256 -0.174241 1.67914 0.242398 0.361685 0.687868 -0.0584548
166 1 42.9187 11.2178 45.1154 0.303334 2.64907 -1.438 0.311348 0.184745 -0.705422
167 1 55.4452 35.8014 5.47683 -0.504047 -0.689015 -4.55281 0.413122 -0.241246 -0.493971
168 2 26.3364 2.29456 46.4074 2.40094 1.02819 -0.893609 0.237607 -0.643237 -0.0249996
169 1 17.6656 25.1437 26.7442 -1.08701 -3.57983 -2.17432 -0.455475 0.155199 -0.0810502
170 2 28.9772 27.057 17.4935 3.11472 -0.0644196 1.44473 0.090265 -0.658479 -0.599266
171 1 23.2351 27.5329 32.6231 -1.63137 -1.63204 -0.0830917 0.0326679 0.130275 -0.116954
172 2 1.00452 37.546 0.116102 1.58599 -0.828077 3.62464 -0.4563 -0.208796 0.251075
173 2 54.3772 0.482816 14.6118 2.36605 1.60671 -0.673771 -0.211223 -0.239492 -0.470642
174 1 14.8775 18.1791 33.7171 1.89401 -0.0885703 -2.1831 -0.226246 -0.25481 -0.105068
175 1 55.2325 13.0572 4.10887 -0.100259 -1.49434 0.219983 0.600449 -0.20577 0.0672298
176 1 31.881 53.0765 24.6763 0.281289 -2.18328 -0.680832 -0.110523 -0.257397 0.21766
177 1 10.0307 8.79367 15.4354 0.356276 1.03926 -0.282663 0.802537 -0.479011 -0.0666853
178 2 35.8556 0.364536 -0.38597 -4.18603 0.969624 -0.92874 -0.514486 -0.184573 -0.0955211
179 1 7.57819 2.61001 49.461 1.75686 -1.65815 -0.631366 0.141529 0.487932 0.203307
180 2 29.5278 52.7388 8.52229 -0.566266 1.5816 -2.18065 0.416697 -0.471132 -0.311853
181 1 22.9201 8.84833 22.6583 2.29411 -1.33835 0.258096 -0.122089 -0.762849 0.398754
182 1 52.2518 43.4755 30.183 -1.93757 1.81447 -1.68239 -0.444025 0.234995 0.066553
183 2 47.3959 10.8186 21.8155 0.877001 0.454886 -0.896858 0.441349 -0.380976 -0.784021
184 1 19.0372 44.709 24.4577 -2.01458 -0.534985 -2.45218 -0.0862821 0.0981622 0.275677
185 1 29.9956 4.55305 45.2386 3.90358 1.66215 -1.77321 -0.0663086 0.0962959 -0.488533
186 1 56.4897 4.81652 31.5976 1.27728 0.900555 1.90556 0.102548 -0.103897 -0.287443
187 1 44.4157 25.7474 3.79307 -0.10134 -0.502567 3.30587 -0.837914 -0.011996 0.250888
188 2 23.9164 46.0416 2.62904 -0.756924 0.158184 3.36178 -0.134969 -0.0441038 -0.200043
189 2 -1.57005 52.0984 11.5753 0.467233 -1.2145 0.700174 0.6904 0.17215 -0.354493
190 1 17.5547 42.7416 46.4806 -1.46534 1.81475 -4.2778 0.14853 -0.436018 -0.0765067
191 2 50.8855 42.9731 32.3822 0.0355065 -0.599172 0.370257 0.127115 -0.302037 -0.561773
192 2 20.4581 47.0013 38.6248 -1.0732 3.62803 -0.189889 0.266988 0.387461 -0.363282
193 1 0.903157 26.2651 49.5733 0.204705 -2.8729 0.604882 0.539703 0.197694 -0.18418
194 1 13.4527 23.2785 26.2132 -0.243359 0.510213 0.408971 0.468467 -0.536653 -0.162962
195 2 14.3117 -1.45716 -0.662338 -0.386452 -0.681679 -4.21345 -0.211079 0.201459 0.572309
196 2 45.1385 4.67286 11.69 -0.778369 -1.28058 -1.20673 0.188463 0.101719 0.391777
197 1 24.5032 9.93173 39.1347 -0.168938 0.721307 4.22788 0.23398 -0.140051 -0.117425
198 2 8.80935 17.4444 5.25506 0.375454 1.84687 0.724414 -0.484339 -0.191469 -0.0548741
199 2 0.095528 16.2513 31.3592 0.880612 -0.235594 -0.736684 0.248955 -0.129392 0.622886
200 2 41.855 50.2621 28.1099 0.121925 -1.89691 -1.41512 0.903539 0.704575 0.0599327
201 2 41.0772 37.4597 40.1253 1.70963 2.58611 2.84701 0.816835 0.286362 0.310572
202 2 20.2995 27.5497 3.1202 0.0640046 1.23638 2.12576 0.279744 -0.386527 -0.235171
203 1 21.9669 9.22427 5.72755 1.30602 -3.20572 1.27386 -0.387108 0.0544623 0.394652
204 1 12.3037 44.4844 6.38436 1.06853 -1.47087 0.849928 0.237317 0.0551813 -0.083088
205 1 45.6242 30.863 3.47619 -0.627521 -0.587639 -1.69425 -0.0698687 -0.41531 0.394097
206 1 52.9143 45.1626 25.6457 -2.11009 -1.63353 2.64356 0.57739 -0.636899 0.0657906
207 1 21.493 53.2826 13.0535 0.688612 2.11472 -1.92226 -0.134942 0.0967947 0.537133
208 1 23.7396 41.0363 -0.226324 -4.35149 -1.49983 -0.576169 0.0460321 0.207351 0.00219427
209 2 36.0381 47.9866 17.9771 -1.1961 -1.15577 -1.18925 0.322957 -0.549513 -0.288179
210 2 34.3838 5.70011 40.7274 1.69003 0.531548 -0.811597 -0.626678 0.212389 0.893928
211 2 20.337 1.58327 11.4383 0.141431 -0.380314 0.693292 -0.618971 0.354634 0.174309
212 2 -0.451201 21.2925 27.2291 1.07404 0.747013 2.65636 -0.220979 0.691567 -0.177682
213 2 1.25192 45.8342 17.4701 0.966583 0.0611695 -0.920853 -0.634308 0.415007 -0.262607
214 2 23.6393 25.4133 27.3625 0.317083 -0.532857 0.799611 0.0297197 -0.576486 -0.0638506
215 1 12.4223 12.5874 18.9953 -0.0353038 1.919 3.66544 -0.217817 -0.098209 -0.0668322
216 1 2.4227 52.0398 43.5588 -0.32559 2.4713 1.15622 0.285449 0.148254 0.0475601
217 2 24.6814 2.68205 27.4157 1.32129 -0.19991 -0.329162 0.179987 0.0299176 0.510597
218 2 46.6976 42.1811 14.5127 -0.381974 -0.169212 -1.95702 0.157187 0.094708 0.249857
219 2 30.6013 0.0218677 7.94612 -3.0477 0.20389 1.01134 -0.502264 -0.346265 -0.414924
220 1 22.5345 18.0286 2.55201 0.442943 -3.04634 3.0645 -0.231489 0.0323324 0.299253
221 1 23.8491 0.416033 14.3716 0.263865 0.476593 -1.06442 0.507119 -0.0846213 0.0193548
222 1 50.9573 26.751 9.86013 2.22389 -2.28733 -0.931092 0.672247 0.282319 0.16865
223 1 19.8611 4.38216 -0.342501 -2.09494 0.0107472 -2.29626 0.428296 0.295889 -0.136767
224 1 55.673 57.0277 5.81207 -1.92714 -1.30855 2.56459 -0.135457 -0.153306 -0.256585
225 2 32.2301 3.32531 49.5449 -1.20191 -0.519669 0.242685 0.530497 0.456019 -0.0514804
226 2 9.86579 2.71099 26.5429 -0.301524 1.55178 0.986672 0.125025 0.0809289 -0.0615313
227 1 29.3422 17.6359 34.4476 0.0935134 0.197818 0.423808 -0.167703 -0.587644 0.802863
228 1 37.486 2.20172 54.3531 -0.664007 -1.68735 1.61909 -0.389325 0.10097 0.197854
229 1 54.6039 0.160748 26.6263 0.763729 3.62528 1.19572 -0.608427 0.0296386 -0.186888
230 1 14.0426 1.78137 24.9082 -1.07423 -1.24471 1.06142 0.0556598 0.578854 0.0258646
231 2 55.7089 40.4465 28.859 -1.52621 0.138858 -1.0435 -0.469348 -0.0711632 -0.522734
232 2 36.8063 38.1587 15.4675 0.609972 -0.733485 -0.993557 -0.139372 -0.130855 -0.171536
233 2 26.8479 30.1589 10.4943 0.133416 1.6342 -0.942758 -0.207533 -0.140022 -0.411424
234 1 8.43758 17.1876 2.34843 3.12506 1.64697 0.421267 0.360674 0.523457 0.206038
235 1 19.2108 53.0815 2.65518 1.61209 -1.3687 1.96426 -0.135206 -0.00264801 0.200118
236 2 1.04156 11.8283 -0.904682 0.738595 -1.11655 -0.31372 -1.07147 -1.05878 0.648883
237 1 2.95161 18.3269 51.1814 -0.0423884 -2.2964 -1.10292 -0.0609668 0.415675 -0.296053
238 1 30.7966 48.1741 47.8061 -0.133438 4.89449 -1.62686 0.806154 0.501233 -0.935446
239 2 -1.47093 19.2369 46.1431 2.34984 1.38729 1.82807 0.706913 -0.351498 0.118729
240 2 28.5813 49.7534 8.55805 -2.27257 1.15669 -1.7997 0.0157109 0.0610461 -0.265918
241 2 51.9189 6.56976 36.5596 -1.79217 2.83727 1.40948 0.291195 -0.154137 -0.681695
242 2 41.3041 56.7189 46.8919 0.551176 -0.136353 -0.54749 -0.445972 0.0259245 0.00924242
243 1 10.2196 55.7759 41.1955 3.39078 -1.07659 2.47373 -0.379649 -0.311228 0.370468
244 1 37.9358 46.7587 30.7145 -0.281077 0.627981 0.0663895 0.455845 -0.296786 -0.739871
245 1 16.5301 21.831 12.3974 -0.0663158 -0.15238 -1.11522 0.182875 0.558973 -0.497284
246 2 26.0026 53.6483 20.2426 -2.84427 -1.63812 -0.0933598 -0.0370518 -0.516832 -0.344455
247 1 47.4943 34.4511 39.0622 -0.712807 1.46067 2.9091 0.197012 -0.47019 -0.328338
248 1 14.2385 3.09976 1.3255 2.60943 -2.62104 -1.21976 0.319715 0.034038 0.346456
249 2 13.2194 14.1526 45.9661 -1.81191 2.40778 1.52466 0.0527347 -0.741573 -0.140878
250 2 1.75586 -0.180067 12.0023 -0.174257 3.22461 -0.0462087 -0.231823 0.266917 0.204986
251 1 15.979 55.7234 2.40518 -0.154377 0.425881 -0.976865 0.724784 0.630269 0.474705
252 2 14.3278 16.6007 15.9511 -2.45842 -0.602324 -2.68966 -0.414333 -0.442449 0.0389462
253 1 9.61611 23.6416 43.9327 0.544292 -1.99648 3.36165 0.247516 0.447143 -0.0650613
254 1 0.406984 49.3609 5.12745 2.48487 1.72763 -1.50639 0.145725 -0.576726 0.237001
255 2 19.3999 42.2613 31.7471 1.3546 0.415747 -0.415846 -0.665124 -0.261869 0.295884
256 1 25.8809 54.9902 44.3258 4.37235 0.286891 -0.0225939 0.0278408 -0.101485 -0.325257
257 1 14.4324 34.9297 26.1517 1.72032 -1.89831 -0.657433 0.729073 -0.405862 0.305709
258 1 50.4789 50.1525 17.2769 0.574208 -1.24139 2.80516 0.379957 -0.179882 0.21724
259 2 0.899211 0.327411 49.2667 1.99979 -1.63726 1.8542 0.187181 -0.113783 0.501097
260 2 42.6789 51.2807 4.85561 -1.7807 2.27411 0.118883 0.0390693 0.0558323 0.389206
261 2 28.3 3.88816 33.6304 3.72189 -0.58129 -1.94416 -0.389888 -0.141628 0.485895
262 2 29.396 16.6108 -1.37499 0.0698402 -3.30471 2.48527 1.00721 -0.798897 0.220627
263 1 25.8657 23.3955 19.4903 0.0157377 -0.30926 2.14709 -0.324177 0.247561 -0.742285
264 1 47.584 35.5937 10.9973 2.25628 4.17955 -2.39347 0.227305 0.538742 0.274236
265 1 15.6568 47.067 33.3048 -1.41192 -2.98271 -5.58281 0.520175 0.250848 0.137666
266 2 13.5345 4.33629 10.4892 0.332665 0.0430871 0.626398 0.380568 -0.0168783 -0.109318
267 2 9.64698 24.2674 40.9868 -1.38107 -1.11329 0.880094 0.088134 -0.145305 -0.278772
268 1 12.7342 20.2121 29.7575 2.41691 2.72387 -3.34993 0.0838483 -0.437904 0.696811
269 2 4.74273 5.24125 57.1482 2.14661 1.53193 -1.06234 -0.138703 0.791948 -0.0380348
270 2 54.4311 47.2722 40.1748 -0.0565997 -3.07073 -2.93062 -0.654953 0.61904 0.229716
271 2 45.2909 18.8026 22.5823 -3.19941 2.59029 -1.64487 0.144579 0.0697518 0.194656
272 1 5.00719 34.1828 23.0238 -3.23018 -1.03129 1.28208 0.138292 -0.678753 -0.340264
273 1 24.508 14.092 56.7132 4.08661 0.949513 -2.17073 0.0543128 0.240558 -0.147435
274 1 48.6153 10.39 38.5308 -1.24301 1.14973 -1.43343 0.357631 -0.297498 0.170731
275 1 20.9653 7.39315 46.1195 2.20625 -0.978051 1.47967 0.401781 -0.186227 -0.177013
276 1 8.16639 33.593 35.8355 1.78999 -1.35687 -0.0924135 -0.324995 -0.495319 0.222965
277 2 8.04262 26.9971 37.0116 0.139445 0.957599 0.691589 -0.110986 -0.0468797 -0.420199
278 2 40.2318 12.242 11.3261 2.34979 4.20652 -2.71434 0.206788 0.396244 -0.490261
279 1 23.6482 41.9123 7.98441 1.21893 -0.85803 -4.97717 -0.268746 0.101579 0.100983
280 1 37.2056 47.4317 46.2537 -0.884582 0.83191 2.14574 -0.08428 -0.10472 -0.112699
281 2 50.6593 22.0895 5.40924 -0.889035 0.00887381 0.556443 -0.331012 0.661106 0.402996
282 1 49.9347 6.47071 53.3849 0.764607 2.46889 2.03514 -0.411937 -0.144805 -0.491481
283 1 7.31449 1.94701 9.69165 -1.30792 0.62535 2.82328 0.0569635 0.0816185 0.399119
284 2 41.4336 32.2794 29.1999 2.26589 -1.94966 3.7992 0.516826 -0.268061 -0.162721
285 1 34.1829 13.7294 38.7625 0.570756 0.93053 0.586677 0.299176 0.705127 -0.0628981
286 2 -0.0947668 45.9171 0.702575 -0.743365 -0.224183 -2.70821 -0.248002 -0.10497 0.433825
287 1 27.098 51.9241 53.4062 1.01498 -2.05155 -0.754989 -0.557214 0.052736 0.05818
288 1 11.8926 23.9462 44.9446 -0.964165 0.475413 1.16967 0.263783 -0.0732084 -0.0196854
289 1 -1.06071 14.4283 24.4925 -4.30291 0.752895 1.56086 0.396279 0.253332 -0.497069
290 2 9.89871 3.96068 45.4063 0.624239 -1.01866 -1.51768 -0.437492 -0.347269 -0.444059
291 2 15.6675 27.3786 52.6761 0.850314 -0.0335458 1.29198 0.0271708 0.432925 -0.188296
292 1 13.5322 16.1818 48.0179 3.49844 0.400427 1.07091 -0.685469 -0.084277 0.140118
293 1 26.9445 52.4245 37.2921 -1.65146 1.17406 -3.08282 0.0997575 0.398369 -0.48708
294 1 48.0923 26.1791 32.9774 1.30348 0.678284 -5.19747 -0.497453 -0.311393 0.297918
295 2 48.1541 53.4826 15.9566 1.2736 -1.01053 -1.34696 -0.228762 0.464028 0.189623
296 1 49.5658 4.75361 26.9322 0.735503 -1.69476 -0.421154 0.229973 0.0958739 -0.184838
297 1 48.9192 55.1603 10.7574 -2.83712 -1.62955 -1.30439 -0.170239 -0.411404 -0.090592
298 1 33.5332 39.9963 43.6974 -3.49844 -2.71405 -0.648188 -0.714655 -0.507929 0.370062
299 1 24.5352 40.2925 19.9824 -1.59109 -0.275374 -1.10736 0.405128 -0.254499 -0.352994
300 1 49.3437 39.0823 23.7166 -1.57115 0.380656 2.77457 0.159314 -0.0165612 -0.318846
301 1 24.16 19.3838 40.9789 -4.30138 -0.212121 0.298247 0.537371 0.344043 -0.329846
302 2 36.5727 31.8952 36.2787 0.941581 -2.78376 0.472396 0.146791 -0.34555 -0.368454
303 1 11.7772 3.62467 36.1554 -1.22087 2.13729 -2.74549 0.493388 -0.203156 -0.0284236
304 1 0.825096 43.1765 25.0286 -3.88262 -2.33387 0.87451 -0.234114 0.0837847 0.351212
305 1 4.59538 3.4407 -0.0087815 1.98007 -0.319567 -2.89009 0.19298 -0.445061 0.735183
306 1 1.82331 54.6307 51.9448 -1.07006 -1.23255 -3.92013 0.0219797 -0.710133 -0.978937
307 2 51.3731 16.1175 41.8127 2.03749 0.0538882 -4.05597 0.204399 -0.14801 -0.179672
308 1 9.10801 -0.288999 36.3816 -1.06034 2.6909 1.96838 0.654415 -0.0758452 -0.0133422
309 1 1.49029 52.1342 15.0305 0.151675 3.86816 -0.593326 -0.243133 0.229128 0.296692
310 1 45.4065 47.0662 24.4708 -1.62762 -3.39444 -0.770404 -0.413117 -0.006802 0.0402973
311 2 18.8191 21.9331 48.1692 0.0808589 0.290978 -2.69789 -0.235881 0.0554415 -0.250022
312 2 6.78849 40.67 5.94817 -0.915337 -1.20087 -0.0150498 -0.0112779 0.19957 0.0263592
313 1 55.2485 17.5258 7.40234 0.787105 -0.550771 -1.33982 -0.198159 -0.135031 0.179276
314 1 56.0649 24.8724 47.6861 3.19189 2.34406 0.393182 -0.288413 -0.0512682 -0.0279829
315 2 32.5678 25.5126 48.8128 -2.49534 0.295827 -2.00038 0.0868657 0.58677 0.183467
316 1 45.4743 32.165 35.6609 0.414209 -0.674312 -0.825732 0.461666 -0.230775 0.204588
317 1 16.0577 41.5761 50.4018 2.14842 -3.63608 0.744721 0.309444 -0.257809 0.0436462
318 1 42.122 -0.0198073 2.83222 1.62996 1.57687 1.37356 -0.372121 0.00415148 -0.369253
319 2 44.7352 56.068 32.5225 -2.19031 -1.51552 0.259125 0.47918 0.417736 -0.0152737
320 1 53.421 35.5319 36.856 8.69848 1.91872 0.547595 0.231808 0.649542 -0.667886
321 2 12.8762 22.5924 6.62455 -1.9242 1.85548 -1.09151 -0.456211 -0.224133 -0.519379
322 1 16.8619 37.3912 5.70854 2.10603 0.336861 1.27501 0.229649 0.240454 -0.139592
323 1 44.0211 7.87667 42.5465 -1.4994 1.43633 -1.16531 0.397002 0.205985 0.287126
324 1 51.8607 38.0896 31.6071 2.9176 0.30528 -0.944568 -0.00988828 0.282452 0.289205
325 1 14.7165 16.8619 50.1142 -1.50196 1.18437 -2.7597 0.249662 0.501299 0.0279061
326 2 39.7025 0.577876 4.1198 -0.333712 0.260164 -3.73506 0.166972 0.270139 0.401917
327 2 21.2729 -1.33416 38.85 -1.10576 1.64736 0.12825 -0.17876 0.0502717 0.303844
328 2 28.0583 51.5725 31.719 0.548363 1.54665 -1.19631 0.201811 0.248539 0.37798
329 1 56.7665 8.86359 9.29481 3.11525 -3.99815 -2.99373 0.101591 0.14512 0.387093
330 2 40.9899 20.9584 30.161 0.493241 0.706756 0.328433 -0.553962 -0.570489 -0.426427
331 1 11.4324 51.6519 3.23668 0.961525 -1.94462 -0.955077 -0.405925 -0.149303 0.43161
332 2 28.6921 18.5322 30.0152 2.07078 -0.108256 1.13384 0.297641 -0.283021 -0.133673
333 2 15.9361 52.7225 47.6615 2.09422 1.8366 -1.74997 -0.130879 -0.333114 -0.0242997
334 2 44.989 51.304 50.8159 1.84162 1.81848 0.0568912 0.422376 0.158894 0.126863
335 2 8.80413 29.2577 4.50449 -0.513293 0.924212 0.768048 0.523479 0.427082 0.622846
336 1 5.361 50.5476 5.46392 0.725952 0.0241982 2.91855 0.0540855 -0.296188 0.05598
337 2 48.6319 29.7553 43.1855 -2.36454 1.48346 -1.55138 0.176927 -0.146573 0.044415
338 2 30.4084 12.4466 23.1703 0.236343 -4.26927 -0.192387 0.342134 0.19122 0.0624273
339 2 4.60725 21.6298 56.1802 1.12379 -0.426984 0.144039 -0.252496 0.0847567 0.262351
340 1 23.0176 0.381805 53.85 2.03826 1.1404 1.05217 0.0486963 -0.0500266 0.0892298
341 1 43.9199 15.2643 38.3111 -0.535608 -2.76919 -1.95044 -0.156231 0.574514 -0.264375
342 2 0.424391 5.27581 25.7788 0.668324 -0.97595 1.2726 0.148773 0.119065 0.323343
343 1 18.9514 44.2818 13.0506 2.47714 0.7783 -1.92963 -0.424901 0.143406 -0.144523
344 2 29.269 29.6309 12.8309 -1.30564 0.0535524 2.47962 0.287845 -0.197287 -0.584525
345 2 4.2531 34.3661 17.9828 -1.94027 -1.06736 1.25909 -0.0966148 0.231288 -0.0749794
346 1 52.6642 34.2745 34.4443 2.58423 2.51682 1.16327 -0.544042 0.496177 0.145472