ITEM: TIMESTEP
22350008
ITEM: NUMBER OF ATOMS
11664
ITEM: BOX BOUNDS pp pp pp
-1.57437 57.3744
-1.57437 57.3744
-1.57437 57.3744
ITEM: ATOMS id type x y z vx vy vz fx fy fz
1 1 28.1389 33.5049 0.671353 0.557084 -2.92829 -0.388599 0.600069 0.127315 -0.173318
2 2 30.0267 5.63606 31.4034 -1.36727 -0.451208 -1.73581 0.0890699 -0.473567 -0.153283
3 2 30.6071 53.7893 15.882 -0.818818 -0.34942 -2.03323 -0.689786 -0.451854 -0.425781
4 1 40.1461 10.4075 8.77279 -2.72856 0.68566 -1.28223 0.0684154 -0.0931763 -0.0674267
5 2 46.0276 55.7534 56.7275 1.10685 0.423609 1.80028 0.224119 -0.362024 0.222701
6 2 37.6732 28.6383 15.9188 -0.930646 0.603594 -0.184179 -0.0542104 0.763441 -0.218213
7 2 49.349 10.7391 30.9805 1.15838 -5.19701 -1.02717 0.182201 0.110943 -0.580523
8 1 -0.236672 0.175263 19.2205 0.393466 -1.90114 3.54306 -0.291919 -0.549026 -0.349602
9 2 10.4507 14.5073 5.43423 -0.020889 -2.80788 -1.74389 -5.64373e-04 -0.091857 -0.0729313
10 2 30.4033 54.0313 32.4437 -0.348123 -1.00442 2.0721 -0.551961 -0.126054 -0.294264
11 1 6.42556 30.6454 46.8945 3.65388 -1.66309 -0.8429 0.488917 0.858146 -0.560983
12 1 46.7523 25.0824 40.4856 2.18832 -0.266689 1.78659 0.0240322 0.263939 -0.211186
13 2 50.488 45.5015 13.4694 -2.42408 0.232325 0.788931 -0.364487 0.109084 -0.377538
14 1 55.7146 27.5324 53.4966 -1.60711 -0.540103 -2.15125 0.278191 0.243745 -0.197502
15 1 -0.371784 43.4499 37.0157 3.52054 -4.01834 2.76507 0.540537 0.0327667 0.149773
16 2 29.5669 43.2959 26.9122 -0.140825 -0.81338 -1.91485 0.132568 0.096818 0.261025
17 2 54.1955 39.719 24.592 -4.56215 3.55727 -1.58934 0.0107682 0.032183 0.150709
18 1 8.41138 1.5009 47.2269 -1.52093 1.68136 0.313764 0.168858 -0.820688 -0.104212
19 1 44.3949 17.66 41.9219 -3.67884 -0.886856 -0.841542 0.0629915 -0.162592 -0.33
20 2 29.3909 15.3527 46.2629 0.649731 0.32099 -1.57516 0.124895 0.0033535 0.323432
21 2 16.2385 24.4232 5.07207 -1.03986 1.72928 1.03651 -0.302342 0.415035 -0.876899
22 2 12.2317 19.8135 10.9521 -1.0958 -0.217383 0.828992 0.1405 -0.0176862 0.0280185
23 2 10.4477 12.5087 56.35 1.34477 -1.53341 1.0433 0.289924 0.273938 -0.0425229
24 1 10.3563 30.7826 45.7658 -2.52461 1.64844 -0.216519 -0.186556 -0.747504 -0.16384
25 2 52.2622 41.1149 -1.28254 0.0752295 1.69574 0.73066 0.201577 0.172335 -0.1472
26 2 12.9282 9.40888 46.406 0.402642 0.400739 0.847662 -0.546377 0.141602 -0.255992
27 1 13.1035 2.99869 8.30551 1.73176 0.80194 -0.522796 0.648418 0.440014 -0.45233
28 1 28.9783 51.3135 15.7298 1.0805 0.303364 2.21857 0.998709 0.304215 0.310285
29 2 27.0056 38.5081 2.67531 0.408371 0.819879 0.557269 -0.0290955 0.416667 0.618668
30 1 32.8035 30.9993 17.3202 -0.986676 -3.03891 -0.821515 0.914063 -0.0284294 -0.240665
31 1 49.4173 32.3911 32.0473 -0.951784 0.891005 0.731473 0.124287 -0.891193 0.274786
32 1 38.6335 11.0619 38.6566 -2.28126 0.311766 0.515255 0.287148 -0.728836 0.152511
33 2 25.324 3.36619 12.2573 -1.09991 0.322949 0.130012 0.640504 -0.35369 0.278957
34 1 6.45154 30.6943 39.5516 1.83931 -1.85186 -0.247329 0.124489 0.160436 -0.0674456
35 1 33.4325 30.9043 54.6625 -2.79174 1.81468 -0.0495868 -0.608962 0.0371378 -0.310697
36 1 21.9027 8.02072 55.9732 -1.86113 0.278393 1.84555 0.147152 -0.114647 -0.695696
37 1 4.58653 57.3306 28.5513 0.936037 0.983038 -1.11713 -0.0772135 -0.167822 -0.07475
38 1 35.2219 53.1626 13.326 -2.14501 -2.69633 -0.277712 -0.981316 0.0186762 -0.24015
39 2 0.696535 15.0026 -0.715172 1.9316 -0.942784 0.491615 -0.338853 0.176586 -0.0565632
40 2 34.1244 44.0436 -1.03296 -1.16797 0.0750418 -0.499207 -0.426872 0.772144 -0.423668
41 1 41.7078 15.2317 29.0439 -0.688889 2.22651 0.038882 0.467266 0.146424 -0.243414
42 1 8.54749 53.8379 20.3418 0.333853 1.20588 0.583389 0.138903 0.0502644 0.0832485
43 1 10.3683 39.3319 15.0096 3.65066 -0.502096 1.21479 0.236564 -0.182544 0.211248
44 1 39.7561 30.5874 15.65 1.25392 -0.325877 -0.0169472 -0.574209 0.0783487 -0.296626
45 2 1.03809 35.4599 7.37306 0.202186 0.774485 0.911425 0.609296 0.286963 0.43518
46 2 3.86248 30.3858 27.8432 2.17752 1.15109 -2.59675 0.221101 -0.051589 -0.170668
47 2 4.93999 25.5188 12.9965 -0.391647 1.26929 0.575161 0.138015 -0.0568891 0.584233
48 2 56.8198 50.0595 51.8917 1.46721 -1.76552 -1.94805 0.208876 -0.63596 0.308477
49 1 23.682 6.92381 0.161241 0.532559 -2.48976 -2.92972 0.0932318 0.232577 -0.871203
50 2 23.5581 50.9992 17.2058 -1.40088 -0.97341 1.44324 0.296749 -0.718696 0.287594
51 1 11.7537 20.1753 42.7774 -4.54594 4.09073 -2.42232 -0.183042 0.269168 -0.283775
52 2 10.2564 24.4612 24.4462 -1.66391 0.945011 -0.423362 -0.398106 -0.0379237 0.113107
53 1 46.6665 31.6616 41.4075 -0.0449416 -0.224564 0.252397 0.409334 -0.378296 -0.226507
54 1 13.4089 3.40286 49.5828 1.20403 -0.918668 2.11057 0.111575 -0.352414 0.0891829
55 1 19.8481 5.64109 5.68387 -0.0922503 3.43572 1.43335 0.753123 0.272796 0.0526102
56 1 36.2583 11.1394 9.19541 3.05556 1.82735 1.92146 -0.46758 0.297662 0.647507
57 2 3.75852 55.225 41.5599 -1.337 0.424088 -2.30031 0.435808 0.392878 0.0278783
58 2 44.159 36.7874 29.9341 1.07123 -2.64929 -1.07186 -0.415019 -0.516999 -0.53348
59 1 6.51195 2.14522 23.3915 -0.203958 -3.32132 -0.485871 0.405108 -0.739361 -0.545531
60 2 29.4857 40.0123 27.7275 1.90121 -0.796632 -1.47092 -0.469349 0.262324 0.400282
61 2 27.6122 45.0603 29.1128 -3.21758 -1.64271 -1.70912 -0.149078 -0.404593 -0.133554
62 1 12.8348 11.7168 8.18964 0.793803 0.766442 0.0546836 0.667501 0.334588 -0.655056
63 2 7.29256 24.7867 15.0176 -0.756939 -1.66497 1.11232 -0.400035 0.864293 0.0397108
64 1 26.9529 0.620017 4.33669 -2.93093 0.0721128 -0.0690675 -0.180462 0.04544 0.215386
65 2 55.7386 0.272427 53.9914 -2.32847 -3.08285 3.37712 -0.513883 0.246487 -0.0519345
66 1 4.33188 6.3983 8.24544 -1.84057 1.73836 -2.80001 -0.210325 0.657216 0.0935076
67 2 23.3883 1.13504 11.6738 -0.729727 1.04962 -0.974049 -0.0106269 0.593805 0.449712
68 1 48.5593 45.0648 38.1413 2.43764 -2.84889 3.01131 -0.331488 -0.596753 0.00931678
69 2 24.2496 18.3239 48.6548 0.0964783 -0.297007 -0.28109 0.160585 -0.136252 -0.166362
70 2 6.91367 32.6253 55.3577 -0.946565 2.00122 1.9977 -0.428843 -0.946975 0.503797
71 2 41.8979 22.7098 49.167 1.66838 -1.62414 -2.33612 0.00579319 0.097766 -0.191622
72 2 6.7939 0.13377 49.609 1.78674 -3.18299 0.718096 -0.197082 -1.07025 -0.638136
73 1 48.5625 37.5203 19.4024 2.6405 0.685112 -1.17986 0.898658 0.424802 0.490809
74 1 25.2538 3.75939 24.6629 1.5208 -1.54068 -0.399695 0.0238948 -0.101937 -0.367945
75 1 53.6868 0.723074 23.6859 0.542342 -0.385379 2.73402 0.604614 -0.273072 -0.00928836
76 1 55.8654 6.52237 42.1051 1.68249 -0.663036 -0.644849 -0.446808 -0.175943 0.306761
77 2 52.5191 56.3908 13.9114 0.0637119 2.36638 -1.87423 0.0522391 0.178793 -0.274071
78 2 3.49084 48.3973 27.3213 0.151727 0.216233 -0.386267 0.1621 0.682819 0.121667
79 2 25.1957 -1.39681 44.3035 1.05796 1.97942 0.0397411 -0.334388 -0.256688 -0.412267
80 2 21.8086 3.02977 5.22059 -2.25253 1.09799 -0.991602 -0.773059 -0.193598 0.580026
81 2 30.3251 21.9467 17.3375 -0.127761 -0.467768 -0.818465 -0.379794 0.597504 0.141686
82 2 36.3539 21.7483 47.1134 1.44026 -1.12198 -2.63718 -0.040331 -0.358567 -0.310028
83 1 50.4101 19.8793 4.2416 -2.43793 -1.13244 2.62606 0.123798 -0.700958 -0.175697
84 1 43.2345 35.2448 47.7984 -0.634482 -0.762608 -1.09334 -0.27857 0.27366 -0.381562
85 2 7.66252 20.5645 51.9677 0.739275 0.66336 -3.63814 0.0208521 0.941877 -0.130944
86 1 43.4921 44.4952 43.1473 3.88001 5.78086 -4.10693 -0.00383945 0.218956 -0.107123
87 1 42.77 24.6395 47.3159 0.113917 -1.09274 2.11765 -0.0823483 -0.486816 0.080065
88 1 46.1579 29.3274 42.2023 1.74383 1.92066 -0.527676 -0.214365 -0.609773 0.224077
89 2 44.5578 41.7928 43.5915 0.253288 1.76581 1.16581 -0.141764 -0.426657 -0.167649
90 2 27.1719 23.3545 -0.97758 2.18414 0.435977 0.0707774 -0.249466 0.320698 0.0552525
91 2 12.3564 52.1517 46.4617 -1.06773 1.24326 0.262982 0.20073 -0.00799602 0.321308
92 2 19.4475 3.18867 24.9514 -2.29479 -0.386527 -0.729031 0.303142 -0.0670277 -0.799717
93 2 25.8827 34.9879 21.1385 -2.28123 0.893516 -1.22775 -0.0103526 -0.186098 -0.486797
94 1 34.0325 53.9322 7.95762 1.14074 -2.61877 1.49788 -0.316637 -0.252009 0.199003
95 2 36.9197 29.2171 56.2076 -1.15826 -2.79077 0.396508 -0.49105 0.366033 -0.201488
96 1 22.1509 9.81136 10.0523 0.101109 1.31452 -0.688551 -0.266324 -0.109082 -0.100828
97 1 18.9942 30.8122 6.35524 1.44761 1.28398 -1.49288 -0.940059 0.0381413 -0.0945009
98 1 7.52496 51.2712 26.262 1.89552 1.80301 1.19465 -0.00641979 0.0452223 -0.00932794
99 2 7.78137 28.2376 16.1205 2.92873 -0.116468 0.357359 0.30304 -0.217029 0.416488
100 2 7.20664 3.02231 30.4513 -1.75848 1.03314 0.414052 0.182837 0.295767 0.139674
101 1 3.64833 26.2256 57.1603 -2.95836 -0.75495 -1.42142 0.413875 -0.460607 -0.131477
102 1 15.4791 13.0227 39.9959 -1.88853 -1.54167 4.97674 -0.408633 -0.360733 -0.0203685
103 2 12.9279 2.38988 54.4559 -3.69708 0.42597 1.48051 0.0914842 -0.89974 0.0487461
104 2 0.947056 28.6872 15.1378 1.63969 1.00453 -2.76419 0.454211 0.388001 0.159024
105 2 33.9641 32.5528 4.61873 -1.88032 2.53488 -0.728585 -0.0105982 -0.518388 0.560244
106 2 21.2791 44.5536 0.8835 -3.43583 -1.42992 1.49583 0.13805 0.324519 0.297204
107 1 54.1402 12.102 2.17306 3.47274 -0.406191 1.71498 0.409405 0.370765 0.375436
108 1 26.6974 51.8221 8.20295 -1.84975 -4.16391 2.78163 0.119478 -0.619978 -0.208922
109 2 28.9169 -1.4484 20.3182 0.0179836 2.33174 -0.560893 0.125068 -0.243614 0.0169932
110 2 20.2225 55.3943 31.2177 -2.65326 -2.10995 -0.719886 -0.0139567 -0.82292 0.361134
111 1 21.8684 9.614 14.6727 -3.12397 1.61679 0.836775 -0.396732 -0.152211 0.387844
112 1 48.3647 55.5413 50.2027 1.29801 3.101 0.0905481 -0.152225 -0.770674 0.0101906
113 2 48.1527 29.4849 33.5024 0.866858 -0.908208 3.03107 -0.0810407 -0.492963 -0.0730228
114 1 53.6981 47.3161 20.6783 -3.57899 -1.23411 -2.29024 -0.10686 -0.081928 -0.0177029
115 1 56.0345 56.5177 38.141 -0.441762 1.61678 -0.245137 0.378623 0.0392841 0.337102
116 2 33.7555 42.9229 13.1707 4.57072 -0.1021 -0.534208 0.321023 -0.391376 0.0283497
117 1 17.2772 55.4804 14.1253 3.41086 -2.57865 1.02281 0.388491 -0.32816 0.420537
118 2 4.25701 32.3861 20.6711 -0.422377 -3.30772 0.800384 -0.127807 0.156069 0.172679
119 1 38.5166 8.14519 50.0048 -2.01635 -2.97641 0.58696 -0.278394 0.276952 -0.217515
120 2 33.553 32.3819 35.9586 -1.85423 1.6144 -0.827587 -0.0253864 0.106612 -0.34341
121 1 16.8284 36.4033 36.8841 -0.466316 1.84729 -1.7722 -0.772217 0.272941 -0.135942
122 2 1.31801 17.7516 53.1719 1.3461 -1.73566 2.72192 -0.0761613 -0.227596 0.416507
123 2 11.4778 10.9912 16.6829 0.249899 -1.82872 -0.146047 -0.107035 0.230196 -0.195988
124 2 49.0335 54.5894 26.3984 0.75982 0.314765 1.16386 0.0880448 0.275917 -0.0328319
125 2 48.9514 10.4393 10.7919 2.43234 -1.40568 -1.34139 -0.168631 -0.347991 0.598393
126 2 54.4296 13.0597 45.252 -1.45336 1.31184 2.32426 -0.376074 -0.921735 0.290689
127 1 1.783 50.2567 23.0998 -1.89075 -3.09888 -1.19816 -0.453682 0.368059 -0.524454
128 2 39.4494 49.3509 39.1829 -0.164211 -0.899647 -0.190772 0.206608 -0.0888298 -0.706929
129 2 31.5121 19.1507 35.7269 -2.69428 4.30816 0.953035 -0.656429 0.179831 0.247203
130 1 13.5791 7.88582 41.4296 1.65774 2.05259 -0.902878 0.227751 0.0670537 0.383536
131 2 9.44811 35.9239 11.5774 0.0429771 -0.592305 1.68832 0.12091 0.673082 0.279298
132 2 22.1766 10.011 -1.10546 -1.2541 -3.84612 -0.706079 -0.15689 0.563207 -0.127444
133 2 43.9464 39.9465 32.9589 -0.463744 -0.806766 0.784611 -0.483597 0.388177 0.0539221
134 1 47.2443 38.0473 10.5567 -1.19234 1.63409 0.0249604 0.37911 -0.0627271 0.149802
135 1 4.17455 8.50009 34.9625 2.85345 0.950351 -2.85806 0.0988038 0.389906 -0.401619
136 2 56.1003 27.3622 46.6792 -1.12136 0.45588 0.0318957 -0.12267 0.00709535 0.0464992
137 1 23.676 5.73203 14.3913 0.152664 2.37506 -0.667336 -0.577456 -0.22721 -0.198834
138 1 13.4837 29.9977 51.5727 0.796971 0.904268 -0.690722 -0.217999 0.113078 -0.08203
139 2 39.4528 57.2377 30.3864 -1.74308 0.404643 0.73675 0.134866 0.106733 -0.151077
140 1 14.4087 5.68475 40.4509 -3.67827 2.34854 4.25387 0.456099 -0.0275166 0.242575
141 1 47.1637 7.39105 23.6421 -0.187384 -0.108393 0.361989 0.259292 0.320295 0.131041
142 2 23.7609 31.2133 53.637 0.872615 -0.348088 2.48131 -0.0145303 0.43998 -0.176928
143 2 4.09837 9.11599 10.1961 0.668676 2.04712 2.53746 -0.11944 -0.205442 -0.00867469
144 2 22.1777 19.5002 53.7204 -1.16914 1.8771 3.56547 -0.469377 -0.130138 0.931274
145 1 55.2153 42.7602 49.4755 0.789352 -0.276253 0.727474 -0.754527 -0.0403964 -0.13707
146 1 50.2604 34.2445 8.872 -1.62571 1.9933 -2.22823 -0.329866 0.0376173 0.0433618
147 2 20.072 52.6343 9.78473 -2.61055 0.678094 1.53234 -0.0315831 0.501998 0.073703
148 2 47.3298 34.9347 45.284 0.657175 1.03309 0.441401 0.303922 0.131641 0.467863
149 1 13.0853 14.4006 33.4494 1.61293 0.809449 1.7716 -0.301551 0.336697 -0.707983
150 2 23.076 57.2985 41.43 0.479627 1.1673 -0.476015 -0.117644 0.941275 0.614886
151 2 12.6157 18.7984 49.058 1.26921 2.54285 2.01759 0.214774 0.162157 -0.563165
152 2 7.97486 22.0591 24.7799 0.797828 -2.11863 0.825655 0.545481 0.556503 -0.679761
153 2 48.9694 29.5663 26.0621 -3.77212 -2.97185 2.23616 -0.460702 0.128074 -0.690652
154 1 32.4462 1.83426 6.66119 2.66636 0.697495 -1.20116 -0.197855 0.644456 0.509178
155 1 23.7053 9.50088 17.2054 1.7394 -1.69409 3.18448 0.284161 -0.225615 -0.189261
156 2 29.8705 42.9657 50.1942 -0.106992 -2.6554 0.1282 -0.750553 -0.254547 -0.205304
157 2 54.9979 -1.45056 12.1761 2.87749 -0.501964 0.370912 -0.417448 -0.0530455 0.150089
158 2 10.9405 43.7701 55.5859 -2.10088 -0.655239 0.474896 0.188158 0.0300749 -0.0400132
159 2 19.6895 23.941 45.7824 -0.319224 -1.7123 -2.203 -0.339596 -0.326043 -0.357546
160 2 40.7338 34.7651 17.5256 -0.434755 1.14106 -1.11144 -0.0307888 0.441486 0.188641
161 2 38.1912 8.37844 38.0564 -0.0612292 -0.786363 -1.73654 0.176631 -0.0239086 0.0415429
162 1 18.5666 25.6922 16.6996 1.44973 1.11315 0.55496 0.0521923 -0.122798 0.0416538
163 2 16.3181 49.9892 56.2169 0.969972 0.517886 1.26264 0.361646 0.158125 -0.381606
164 2 49.7675 6.68408 6.38625 -0.0505047 -3.14391 0.0072446 -0.306833 -0.478246 -0.0345421
165 1 49.18 27.1419 5.80514 0.235857 2.44931 0.152243 0.311764 0.57415 -0.0891109
166 1 42.922 11.2406 45.0997 0.669077 2.8712 -2.29052 0.288273 0.175334 -0.686988
167 1 55.442 35.7946 5.43934 -0.0059809 -0.902067 -5.01145 0.39957 -0.108409 -0.250885
168 2 26.3563 2.30161 46.3993 2.54635 0.435354 -0.901305 0.102148 -0.75029 0.0136856
169 1 17.6553 25.116 26.7266 -1.5696 -3.35329 -2.23231 -0.334298 0.220965 -0.0121465
170 2 29.0023 27.0543 17.5035 3.13146 -0.593564 0.926792 -0.0493383 -0.588127 -0.623493
171 1 23.2225 27.5205 32.6217 -1.5737 -1.49003 -0.237747 0.0644456 0.106466 -0.136164
172 2 1.01685 37.5382 0.147051 1.19743 -1.00416 3.78267 -0.462187 -0.203633 0.112816
173 2 54.3942 0.496096 14.6054 2.15092 1.4127 -1.07734 -0.301526 -0.222107 -0.476507
174 1 14.892 18.1775 33.699 1.59015 -0.437674 -2.26939 -0.27387 -0.31735 -0.0350644
175 1 55.2334 13.045 4.11219 0.622608 -1.71476 0.374226 0.58528 -0.153333 0.188604
176 1 31.8825 53.0568 24.672 0.146975 -2.4461 -0.45219 -0.112073 -0.169425 0.159566
177 1 10.0381 8.80041 15.4334 1.26177 0.420491 -0.346443 0.68091 -0.534744 -0.0384985
178 2 35.8202 0.372785 -0.392401 -4.53254 0.773187 -0.979266 -0.296465 -0.278493 -0.0203693
179 1 7.59373 2.60021 49.4561 1.88554 -1.07527 -0.372148 0.0672061 0.463906 0.222192
180 2 29.5245 52.7487 8.50472 -0.248256 1.1634 -2.41367 0.332521 -0.515078 -0.231534
181 1 22.9378 8.83503 22.6625 2.02774 -2.15063 0.72567 -0.319681 -0.564306 0.363022
182 1 52.2331 43.4904 30.17 -2.44504 2.03259 -1.5313 -0.385016 0.119112 0.183244
183 2 47.4036 10.8216 21.8059 1.24142 0.122484 -1.56432 0.412977 -0.399641 -0.783831
184 1 19.0211 44.7044 24.4397 -2.07519 -0.433041 -2.0621 -0.0126265 0.0713044 0.365032
185 1 30.0263 4.5678 45.2214 3.78371 1.75682 -2.33155 -0.133603 0.0560383 -0.42422
186 1 56.4991 4.82424 31.6112 1.35877 0.776009 1.5515 0.0314754 -0.100109 -0.295671
187 1 44.4101 25.7436 3.82157 -1.14135 -0.435823 3.51148 -0.868939 0.121407 0.0802819
188 2 23.9101 46.0419 2.65631 -0.846214 0.118528 3.16279 -0.0738907 -0.0487177 -0.274846
189 2 -1.56273 52.0883 11.5803 1.02573 -1.03927 0.370829 0.62038 0.241826 -0.42242
190 1 17.5442 42.7534 46.4453 -1.23769 1.31021 -4.31366 0.228506 -0.392342 0.0224535
191 2 50.8853 42.9667 32.383 0.175811 -0.835629 -0.100529 0.205753 -0.252702 -0.54636
192 2 20.451 47.0306 38.6215 -0.73918 3.86836 -0.541956 0.510685 0.179806 -0.464615
193 1 0.908639 26.2434 49.5763 0.871425 -2.49739 0.39983 0.556601 0.424856 -0.149148
194 1 13.4537 23.2801 26.2157 0.358175 -0.170737 0.187595 0.522055 -0.583901 -0.204592
195 2 14.3085 -1.46052 -0.692679 -0.543607 -0.46562 -3.66055 -0.159608 0.305018 0.733919
196 2 45.1323 4.66409 11.6825 -0.54936 -1.15367 -0.805492 0.353934 0.202996 0.548391
197 1 24.5032 9.93763 39.1672 0.15483 0.556762 3.97739 0.296675 -0.129357 -0.296948
198 2 8.81155 17.4588 5.26165 -0.0321853 1.63502 0.664991 -0.464431 -0.313896 -0.0908378
199 2 0.104611 16.2495 31.3554 1.07674 -0.336472 -0.176822 0.211291 -0.107625 0.694514
200 2 41.8584 50.2483 28.0988 0.886244 -1.27846 -1.34074 0.891644 0.758365 0.1175
201 2 41.0931 37.4808 40.1484 2.39575 2.77093 3.0551 0.793362 0.142735 0.176353
202 2 20.3013 27.5583 3.13752 0.271036 0.936081 1.93197 0.206431 -0.321456 -0.223417
203 1 21.9757 9.19991 5.7406 0.822264 -3.06012 1.73806 -0.409179 0.189485 0.366709
204 1 12.3141 44.4722 6.39163 1.34088 -1.39666 0.716871 0.206502 0.0669344 -0.134637
205 1 45.618 30.8564 3.4659 -0.748877 -0.993278 -1.10778 -0.129424 -0.252141 0.56629
206 1 52.8993 45.1459 25.6672 -1.32171 -2.30423 2.68502 0.720252 -0.46233 -0.00346057
207 1 21.4981 53.2986 13.0415 0.507816 2.15789 -1.21459 -0.161264 -0.0322097 0.623613
208 1 23.7055 41.0252 -0.229285 -4.17818 -1.09125 -0.415773 0.242265 0.457858 0.259887
209 2 36.0293 47.9747 17.967 -0.911884 -1.60058 -1.44725 0.346939 -0.489153 -0.31871
210 2 34.3949 5.7061 40.7234 1.13495 0.721688 -0.0301643 -0.680819 0.232125 0.94395
211 2 20.3363 1.58258 11.4452 -0.397618 -0.0841673 0.824486 -0.652257 0.3455 0.133463
212 2 -0.442101 21.3012 27.2497 0.887624 1.3352 2.47008 -0.219363 0.689163 -0.264067
213 2 1.25871 45.8354 17.4623 0.438175 0.42509 -1.13004 -0.611687 0.441716 -0.227698
214 2 23.642 25.4073 27.3686 0.309411 -0.997422 0.707039 -0.0478183 -0.513377 -0.156676
215 1 12.4215 12.6029 19.0245 -0.358628 1.76701 3.47616 -0.311612 -0.155291 -0.247308
216 1 2.42283 52.0592 43.5674 0.107886 2.62595 1.13498 0.417156 0.103005 -0.0834419
217 2 24.6926 2.68166 27.4148 1.42107 -0.177148 0.0897824 0.0544303 0.0244196 0.472573
218 2 46.6943 42.1794 14.4986 -0.230207 -0.091183 -1.69663 0.199346 0.0893429 0.365666
219 2 30.5753 0.0235741 7.95362 -3.37168 -0.0829246 0.629038 -0.251938 -0.330615 -0.493315
220 1 22.5369 18.005 2.57893 0.0923539 -2.93096 3.35553 -0.34138 0.158892 0.171261
221 1 23.8539 0.420674 14.3638 0.86218 0.383771 -1.02907 0.4702 -0.0677188 0.0416981
222 1 50.9771 26.7342 9.85429 2.95566 -1.91689 -0.730855 0.520028 0.322696 0.162384
223 1 19.8468 4.38453 -0.360157 -1.54227 0.292553 -2.40844 0.482464 0.167398 -0.045846
224 1 55.6557 57.0153 5.83212 -2.06708 -1.45386 2.17181 -0.0910768 -0.0858031 -0.391583
225 2 32.2221 3.32375 49.5456 -0.76634 -0.148074 0.178692 0.495875 0.419759 -0.101559
226 2 9.86457 2.72482 26.5506 -0.20339 1.63218 0.911516 0.106509 0.105182 -0.121228
227 1 29.342 17.6351 34.4546 -0.112368 -0.526567 1.36348 -0.169525 -0.59892 0.736065
228 1 37.4784 2.1899 54.3658 -1.12601 -1.54024 1.84912 -0.368953 0.142914 0.174872
229 1 54.6059 0.190805 26.635 0.0301538 3.53092 0.961997 -0.594483 -0.192143 -0.198707
230 1 14.035 1.77551 24.9168 -0.946112 -0.493504 1.05966 0.155317 0.651478 -0.0328658
231 2 55.694 40.4469 28.849 -1.89048 0.0753129 -1.43567 -0.383737 -0.0798408 -0.384141
232 2 36.8104 38.1519 15.4596 0.527224 -0.838595 -1.11034 -0.0570096 -0.117561 -0.0999671
233 2 26.8483 30.1714 10.4861 -0.0382873 1.50116 -1.27358 -0.196144 -0.17593 -0.366308
234 1 8.4649 17.2038 2.35392 3.4462 2.28848 0.66851 0.164452 0.525128 0.198856
235 1 19.2233 53.0695 2.67264 1.43232 -1.34852 2.06904 -0.163088 0.0364824 -0.0312843
236 2 1.04485 11.8163 -0.903708 -0.231241 -2.06218 0.236496 -1.1844 -1.14188 0.631623
237 1 2.95198 18.311 51.1702 -0.157279 -1.77759 -1.43444 -0.124896 0.437858 -0.244476
238 1 30.7993 48.2146 47.7878 0.829169 5.40945 -2.72943 0.772108 0.338096 -0.870384
239 2 -1.44851 19.2472 46.1573 2.91582 1.09073 1.90149 0.617749 -0.34811 0.046355
240 2 28.5632 49.762 8.54372 -2.24589 1.21413 -1.97711 0.0459862 0.0711583 -0.149322
241 2 51.9045 6.59275 36.5682 -1.53727 2.65455 0.834065 0.309592 -0.279379 -0.674304
242 2 41.3065 56.7167 46.8867 0.195273 -0.100325 -0.528129 -0.391356 0.0569145 0.0341076
243 1 10.2455 55.7645 41.2164 2.8397 -1.46096 2.87787 -0.53084 -0.314677 0.291943
244 1 37.9352 46.7614 30.7113 0.219892 0.265527 -0.834727 0.363262 -0.299727 -0.734342
245 1 16.5311 21.8328 12.3868 0.171931 0.500893 -1.71043 0.206091 0.500089 -0.473827
246 2 25.98 53.6324 20.2411 -2.7989 -2.04416 -0.35631 0.151216 -0.434238 -0.273977
247 1 47.4887 34.4598 39.0833 -0.458447 0.735411 2.44182 0.215804 -0.710206 -0.43475
248 1 14.2613 3.08032 1.31871 2.88611 -2.46993 -0.754896 0.129722 0.218599 0.414752
249 2 13.2058 14.1699 45.9769 -1.74356 1.7519 1.37773 0.109991 -0.803584 -0.205093
250 2 1.7549 -0.152255 12.0034 -0.348946 3.39553 0.145278 -0.182294 0.129601 0.244165
251 1 15.9818 55.7285 2.40091 0.743152 1.14221 -0.360464 0.74185 0.544056 0.535042
252 2 14.3075 16.5949 15.9303 -2.73949 -0.959825 -2.6135 -0.244299 -0.398875 0.146814
253 1 9.62244 23.628 43.9585 0.828935 -1.45219 3.233 0.218853 0.447487 -0.151218
254 1 0.428573 49.3708 5.11767 2.57547 0.986204 -1.17086 0.00309247 -0.639352 0.31346
255 2 19.4088 42.263 31.7446 0.77278 0.150414 -0.165593 -0.705952 -0.362203 0.292922
256 1 25.916 54.9908 44.3233 4.35927 0.157406 -0.410139 -0.0542303 -0.108352 -0.309746
257 1 14.4502 34.9123 26.148 2.55238 -2.34736 -0.288932 0.62832 -0.323853 0.296399
258 1 50.4843 50.1408 17.3008 1.01243 -1.41912 3.03551 0.337387 -0.110976 0.156017
259 2 0.916861 0.315145 49.2822 2.08582 -1.73314 2.23283 0.0109346 -0.111777 0.385472
260 2 42.6641 51.298 4.8588 -1.75122 2.28845 0.406145 0.032475 -0.0250766 0.285164
261 2 28.3283 3.8841 33.6163 3.30841 -0.697855 -1.48965 -0.59516 -0.131587 0.588084
262 2 29.3998 16.5826 -1.3533 0.880298 -3.80926 2.57665 0.907414 -0.390358 -0.00496388
263 1 25.8644 23.3945 19.504 -0.364088 0.0169778 1.15672 -0.294164 0.28932 -0.883213
264 1 47.6022 35.6291 10.9804 2.47297 4.73638 -2.00855 0.124919 0.367919 0.360999
265 1 15.6488 47.0436 33.2611 -0.703093 -2.6521 -5.18954 0.64217 0.296984 0.512674
266 2 13.5391 4.33763 10.4945 0.665616 0.0333753 0.495412 0.401497 -0.00642601 -0.198916
267 2 9.63708 24.2582 40.9923 -1.28821 -1.20206 0.635188 0.13314 -0.062666 -0.301012
268 1 12.7545 20.2319 29.7341 2.45598 2.1098 -2.4597 -0.0249724 -0.569612 0.767648
269 2 4.76035 5.25708 57.1382 1.98465 2.15796 -1.10533 -0.245588 0.677723 -0.0571059
270 2 54.4274 47.2491 40.1517 -0.567402 -2.45593 -2.71131 -0.549506 0.83345 0.290742
271 2 45.2652 18.8238 22.5702 -3.00555 2.59349 -1.43585 0.316984 -0.0649382 0.296918
272 1 4.98322 34.171 23.0326 -2.98467 -1.82726 0.864106 0.26778 -0.623075 -0.348568
273 1 24.541 14.1013 56.6939 4.08874 1.22534 -2.32715 -0.0556562 0.21103 -0.102602
274 1 48.6064 10.3984 38.5197 -0.747392 0.762589 -1.19981 0.4574 -0.338982 0.213547
275 1 20.9851 7.38538 46.1296 2.64672 -1.18197 1.24312 0.315377 -0.146485 -0.209558
276 1 8.17987 33.5795 35.8355 1.3429 -1.92571 0.173912 -0.405784 -0.435126 0.21174
277 2 8.04423 27.0046 37.0152 0.0420592 0.919675 0.324096 -0.116329 -0.0436317 -0.447732
278 2 40.2505 12.2773 11.3036 2.43586 4.37982 -3.07559 -0.0079499 0.00251871 -0.358227
279 1 23.6567 41.9051 7.94627 0.849512 -0.794341 -4.72891 -0.33778 0.005226 0.306862
280 1 37.1979 47.4368 46.2693 -0.913398 0.64365 1.94 0.036399 -0.200056 -0.22817
281 2 50.6501 22.0921 5.41604 -1.11673 0.591343 0.888974 -0.206273 0.70422 0.373101
282 1 49.9378 6.49057 53.3976 0.244008 2.23595 1.38509 -0.439939 -0.240541 -0.572803
283 1 7.30525 1.9535 9.71677 -1.22412 0.700509 3.21865 0.0820903 0.0416479 0.245693
284 2 41.4527 32.2627 29.2296 2.66321 -2.16425 3.63148 0.414834 -0.232607 -0.242128
285 1 34.1885 13.7407 38.7664 0.887932 1.72827 0.531599 0.21931 0.600348 -0.0294195
286 2 -0.10029 45.9143 0.683704 -0.941193 -0.294069 -2.29014 -0.214873 -0.0615497 0.554563
287 1 27.1034 51.9072 53.3993 0.317789 -1.88912 -0.687559 -0.588746 0.214016 0.0552996
288 1 11.887 23.9498 44.9531 -0.602524 0.357876 1.12501 0.331954 -0.119764 -0.0532106
289 1 -1.09166 14.436 24.5025 -3.71642 0.989133 0.897588 0.566077 0.135413 -0.58818
290 2 9.90307 3.95247 45.3921 0.275462 -1.2871 -1.81413 -0.381104 -0.280433 -0.244382
291 2 15.6749 27.3799 52.6846 0.860779 0.348425 1.09861 -0.00429113 0.466275 -0.267029
292 1 13.5574 16.1852 48.0261 2.62715 0.306747 1.16599 -0.744981 -0.0734222 0.0111234
293 1 26.9318 52.4348 37.2647 -1.52246 1.66381 -3.64762 0.11513 0.40695 -0.436426
294 1 48.0994 26.1829 32.9373 0.698063 0.231464 -4.73642 -0.495057 -0.42512 0.471449
295 2 48.1625 53.475 15.947 1.03018 -0.618521 -1.16792 -0.345136 0.461158 0.236152
296 1 49.5717 4.74153 26.9281 0.949341 -1.58262 -0.602745 0.121534 0.0927209 -0.113874
297 1 48.8949 55.1441 10.7473 -2.97051 -2.11108 -1.39906 -0.0447116 -0.374608 -0.0619104
298 1 33.5017 39.9717 43.6933 -4.29521 -3.25933 -0.213682 -0.583296 -0.382655 0.340394
299 1 24.5247 40.2884 19.9722 -1.059 -0.605143 -1.52109 0.468306 -0.286404 -0.324128
300 1 49.3311 39.0847 23.7373 -1.29901 0.307502 2.34561 0.293184 -0.102894 -0.385876
301 1 24.1284 19.3841 40.979 -3.61123 0.182074 -0.137148 0.602013 0.29973 -0.382787
302 2 36.5803 31.8717 36.2809 1.04931 -3.01391 0.15634 0.106958 -0.192812 -0.379087
303 1 11.7705 3.64178 36.1331 -0.609035 1.85898 -2.72568 0.512589 -0.256659 0.0636906
304 1 0.79436 43.1578 25.0374 -4.0564 -2.16618 1.28408 -0.0454973 0.19597 0.318481
305 1 4.61304 3.43713 -0.0271735 2.15312 -0.828322 -2.03006 0.0896028 -0.384744 0.671467
306 1 1.8159 54.6168 51.9085 -1.08364 -1.86892 -4.73014 -0.0363403 -0.33927 -0.351413
307 2 51.389 16.1181 41.7792 2.184 -0.0424315 -4.1247 0.135297 -0.0808905 0.0215751
308 1 9.10363 -0.266737 36.3968 -0.228087 2.53954 1.91596 0.70875 -0.175875 -0.0737484
309 1 1.49147 52.1649 15.0278 -0.149912 4.03952 -0.246196 -0.252308 0.0476835 0.274659
310 1 45.3908 47.0385 24.465 -2.077 -3.2898 -0.727085 -0.323233 0.183675 0.0303857
311 2 18.8193 21.9359 48.1459 -0.128724 0.339302 -2.88184 -0.257365 0.0569282 -0.179771
312 2 6.78214 40.6605 5.94902 -0.892611 -1.03561 -0.0279926 0.0655597 0.191991 -0.057595
313 1 55.2526 17.5214 7.39349 0.557123 -0.659532 -1.08435 -0.179769 -0.0451365 0.243046
314 1 56.0876 24.891 47.6883 2.76018 2.25742 0.373621 -0.422041 -0.0950139 -0.00348639
315 2 32.5481 25.517 48.7967 -2.35311 0.760472 -1.78451 0.247724 0.515067 0.327274
316 1 45.4791 32.1584 35.6549 0.971029 -0.916514 -0.581678 0.448169 -0.163 0.200717
317 1 16.0768 41.5453 50.4068 2.47867 -3.87547 0.731599 0.224685 -0.128458 -0.0670347
318 1 42.1326 -0.00595193 2.84238 1.15194 1.57528 0.869082 -0.413369 -0.00770951 -0.461017
319 2 44.7186 56.0562 32.5243 -1.77274 -1.1211 0.262912 0.507058 0.514026 0.0209143
320 1 53.4902 35.55 36.8569 8.83748 2.66827 -0.195005 -0.0197863 0.576137 -0.548344
321 2 12.86 22.6066 6.61504 -2.2731 1.61903 -1.5146 -0.359457 -0.334882 -0.471356
322 1 16.8803 37.3948 5.71894 2.33281 0.68834 1.06206 0.138419 0.33737 -0.211544
323 1 44.0104 7.8899 42.538 -0.989638 1.62311 -0.783407 0.437386 0.0972201 0.338593
324 1 51.8827 38.093 31.6008 2.83082 0.670577 -0.583455 -0.134809 0.316396 0.306557
325 1 14.7063 16.8742 50.0915 -1.18343 1.75666 -2.61689 0.276013 0.435869 0.207629
326 2 39.6999 0.582206 4.09236 -0.181163 0.539995 -3.37862 0.194071 0.393447 0.445786
327 2 21.2638 -1.31959 38.8516 -1.25067 1.65814 0.397536 -0.156683 -0.0299078 0.326325
328 2 28.0633 51.5846 31.7106 0.695597 1.71551 -0.859116 0.144114 0.145501 0.418375
329 1 56.7905 8.83329 9.27377 3.15304 -3.76627 -2.43868 -0.0455437 0.237996 0.5259
330 2 40.9914 20.9624 30.162 0.0157283 0.213362 -0.0432447 -0.566649 -0.589841 -0.446867
331 1 11.4387 51.6346 3.23242 0.422177 -2.12759 -0.358151 -0.466644 -0.148519 0.535329
332 2 28.7096 18.5308 30.0236 2.3106 -0.352571 0.976964 0.261911 -0.289033 -0.236743
333 2 15.9527 52.7349 47.6467 1.91558 1.55416 -1.74518 -0.296915 -0.335077 0.0353973
334 2 45.0045 51.318 50.8155 2.22089 1.92453 0.0763413 0.466191 0.088513 -0.0846848
335 2 8.80261 29.2664 4.51361 -0.0815723 1.25583 1.22837 0.496077 0.350525 0.459778
336 1 5.36812 50.5452 5.48839 0.810419 -0.403039 2.92602 0.0820718 -0.400246 -0.0467285
337 2 48.6129 29.7666 43.1726 -2.14034 1.36075 -1.49946 0.357884 -0.14672 0.0814661
338 2 30.4113 12.4139 23.1692 0.505732 -4.06501 -0.144152 0.289365 0.296813 0.0480799
339 2 4.61638 21.627 56.1811 0.896375 -0.347412 0.394522 -0.28464 0.103132 0.326707
340 1 23.0341 0.391833 53.8577 2.01602 1.05164 1.16036 -0.0869864 -0.096439 0.0865581
341 1 43.9141 15.2457 38.2938 -0.743803 -1.99844 -2.25215 -0.187343 0.691998 -0.22613
342 2 0.431398 5.26939 25.79 0.770166 -0.878123 1.4827 0.0895872 0.1145 0.170718
343 1 18.9694 44.2879 13.0352 1.90084 0.919086 -2.0646 -0.527319 0.0854203 -0.0744734
344 2 29.2595 29.6307 12.8492 -1.05807 -0.0964387 1.89424 0.294425 -0.152069 -0.794964
345 2 4.23835 34.3581 17.9931 -1.99688 -0.840589 1.19003 -0.0333993 0.305736 -0.0922737
346 1 52.681 34.2966 34.4541 1.86768 3.07173 1.35 -0.629533 0.412 0.158623
347 2 48.8702 26.5922 24.5907 -1.49717 -1.13416 0.44425 -0.0832933 -0.0868631 0.275112