ITEM: TIMESTEP
22350005
ITEM: NUMBER OF ATOMS
11664
ITEM: BOX BOUNDS pp pp pp
-1.57591 57.3759
-1.57591 57.3759
-1.57591 57.3759
ITEM: ATOMS id type x y z vx vy vz fx fy fz
1 1 28.1372 33.523 0.671818 -0.00343399 -2.98694 -0.247829 0.627523 0.0027868 -0.134283
2 2 30.0351 5.6367 31.4137 -1.36856 -0.145128 -1.65013 -0.0853567 -0.4888 -0.113304
3 2 30.6109 53.7919 15.8927 -0.408371 -0.0529907 -1.75851 -0.59968 -0.480431 -0.435784
4 1 40.1632 10.4022 8.77923 -2.74632 0.774107 -1.18217 -0.0276644 -0.100078 -0.150528
5 2 46.0224 55.7517 56.7186 0.934235 0.640145 1.67273 0.318416 -0.31918 0.176198
6 2 37.6791 28.6362 15.9189 -0.8805 0.10409 -0.073229 -0.101322 0.806382 -0.130668
7 2 49.3435 10.7695 30.9857 1.03585 -5.21205 -0.646151 0.201004 -0.0550029 -0.614686
8 1 -0.241292 0.183654 19.1979 0.654822 -1.36358 3.83172 -0.281972 -0.626739 -0.287238
9 2 10.4499 14.5231 5.44337 -0.0311153 -2.69135 -1.69078 0.0322958 -0.269734 -0.0920202
10 2 30.4045 54.0384 32.431 -0.00516546 -0.888851 2.21535 -0.526093 -0.236552 -0.159274
11 1 6.40395 30.6578 46.899 3.15506 -2.43128 -0.332334 0.59887 0.827393 -0.552629
12 1 46.7403 25.0845 40.475 2.11615 -0.478033 1.94295 0.131778 0.196057 -0.133552
13 2 50.5029 45.5012 13.4633 -2.12331 0.18505 0.995331 -0.579228 0.0398595 -0.274455
14 1 55.7264 27.5363 53.5102 -1.83415 -0.727629 -1.95357 0.221292 0.167232 -0.233765
15 1 -0.392843 43.4748 37.0001 2.99308 -3.97737 2.58027 0.609404 -0.122371 0.255099
16 2 29.5681 43.3018 26.9241 -0.22451 -0.860048 -2.05696 0.131017 0.0495962 0.187872
17 2 54.2242 39.6983 24.6015 -4.52676 3.5214 -1.65294 -0.117134 0.0758457 0.0515244
18 1 8.41992 1.48721 47.2257 -1.65921 2.41452 0.393731 0.134854 -0.787918 -0.0691864
19 1 44.4179 17.6643 41.9268 -3.68804 -0.72723 -0.554023 -0.0407497 -0.187683 -0.300209
20 2 29.3874 15.3501 46.2739 0.544107 0.314736 -1.75537 0.205727 0.0149309 0.247719
21 2 16.2435 24.4135 5.06303 -0.845398 1.44329 1.56912 -0.309692 0.484284 -0.800494
22 2 12.2377 19.8144 10.9463 -1.17532 -0.199499 0.786202 0.110354 -0.0384237 0.1058
23 2 10.4393 12.5176 56.3451 1.14323 -1.69238 1.0743 0.340526 0.228149 -0.0556549
24 1 10.37 30.7709 45.7676 -2.35008 2.29635 -0.0593664 -0.193463 -0.672772 -0.180201
25 2 52.2634 41.1058 -1.28873 -0.0495322 1.56896 0.82212 0.191267 0.225466 -0.140322
26 2 12.924 9.40579 46.4014 0.723005 0.30468 1.00919 -0.460689 0.160348 -0.25372
27 1 13.0941 2.99376 8.30636 1.10221 0.413338 -0.0939921 0.728955 0.410526 -0.486285
28 1 28.9747 51.3137 15.7168 0.162893 0.028296 1.90579 1.00837 0.297703 0.372152
29 2 27.0031 38.5046 2.67187 0.412352 0.538527 0.145002 0.0135825 0.465467 0.676451
30 1 32.8121 31.0175 17.324 -1.77983 -2.95379 -0.601176 0.827668 -0.153853 -0.240698
31 1 49.4244 32.3836 32.0439 -1.05001 1.69113 0.468472 0.0894028 -0.860157 0.299746
32 1 38.6484 11.0572 38.6545 -2.49622 0.956187 0.376917 0.185499 -0.682563 0.150493
33 2 25.3316 3.36231 12.2563 -1.49053 0.541635 -0.0433107 0.591616 -0.334991 0.266371
34 1 6.43973 30.706 39.5534 1.71795 -1.95987 -0.154679 0.140705 0.0781947 -0.134192
35 1 33.4477 30.8937 54.6633 -2.17082 1.77392 0.253924 -0.749009 0.0508844 -0.353281
36 1 21.9139 8.01764 55.9619 -1.97028 0.414955 2.34219 0.0973588 -0.182671 -0.397104
37 1 4.57954 57.3258 28.5579 0.977326 1.12766 -1.0501 -0.0141863 -0.148286 -0.0721653
38 1 35.2325 53.18 13.3263 -1.23884 -2.66691 -0.0746093 -0.996735 -0.0809284 -0.205485
39 2 0.682951 15.0079 -0.719722 2.10574 -1.04676 0.527013 -0.211123 0.150042 -0.0565718
40 2 34.1309 44.0455 -1.03233 -0.868583 -0.398032 -0.208979 -0.514469 0.716319 -0.488134
41 1 41.7139 15.2181 29.043 -1.10453 2.07555 0.282282 0.442915 0.183071 -0.290792
42 1 8.54488 53.8322 20.3381 0.19783 1.16365 0.52165 0.158386 0.0412923 0.0494473
43 1 10.3462 39.3349 15.0022 3.40505 -0.300828 1.03171 0.296823 -0.256999 0.188802
44 1 39.7477 30.5897 15.6487 1.7697 -0.388669 0.250678 -0.557424 0.0590375 -0.290846
45 2 1.03662 35.4561 7.36738 -0.174397 0.628716 0.61589 0.573178 0.161944 0.490909
46 2 3.8486 30.379 27.8584 2.02397 1.17443 -2.44706 0.25755 -0.0228511 -0.298346
47 2 4.94136 25.5109 12.9934 -0.455173 1.28783 0.204905 0.0601961 -0.00406453 0.579022
48 2 56.8129 50.07 51.9051 1.32655 -1.36501 -2.11822 0.23198 -0.621893 0.228879
49 1 23.6789 6.93822 0.174976 0.442323 -2.66166 -2.12881 0.103184 0.146081 -0.881522
50 2 23.5667 51.0049 17.1971 -1.55478 -0.521493 1.26634 0.190082 -0.701656 0.26702
51 1 11.7795 20.1512 42.7918 -4.3117 3.77999 -2.11939 -0.326222 0.405516 -0.376088
52 2 10.2647 24.4553 24.4488 -1.39759 0.953296 -0.503211 -0.437992 0.0111575 0.138501
53 1 46.6689 31.662 41.406 -0.408178 0.153637 0.457891 0.386844 -0.452018 -0.224213
54 1 13.4013 3.40607 49.5715 1.0924 -0.566021 2.0142 0.131354 -0.417584 0.119861
55 1 19.8503 5.62018 5.67426 -0.792936 3.1199 1.38679 0.783381 0.413748 0.0450621
56 1 36.2392 11.1284 9.18469 3.4298 1.54689 1.32705 -0.354657 0.314154 0.652733
57 2 3.76612 55.2245 41.5745 -1.61969 0.203622 -2.30906 0.456413 0.299605 0.00209224
58 2 44.1527 36.8028 29.9396 1.3151 -2.3295 -0.696451 -0.352828 -0.485516 -0.645225
59 1 6.51317 2.16167 23.3927 -0.572212 -2.58488 -0.0280205 0.399662 -0.874956 -0.454208
60 2 29.4736 40.0182 27.737 2.14886 -0.958889 -1.66964 -0.30907 0.24852 0.226003
61 2 27.6312 45.0703 29.1229 -3.10723 -1.382 -1.63426 -0.19477 -0.413001 -0.0989809
62 1 12.8311 11.7122 8.18647 0.210056 0.48972 0.656493 0.609814 0.270923 -0.659406
63 2 7.29527 24.7982 15.0103 -0.506871 -2.20701 1.07129 -0.384981 0.844779 0.0875692
64 1 26.9698 0.618272 4.33642 -2.70951 0.0375314 -0.23907 -0.300312 0.0297864 0.158024
65 2 55.753 0.289878 53.9725 -1.98206 -3.1983 3.38315 -0.571167 0.122934 0.0287741
66 1 4.34108 6.3886 8.26137 -1.62797 1.10941 -2.83031 -0.254597 0.72078 -0.0230837
67 2 23.3924 1.12849 11.6796 -0.722646 0.663271 -1.23491 -0.0107278 0.620258 0.372676
68 1 48.5449 45.0811 38.1238 2.73062 -2.27259 2.9578 -0.312302 -0.662039 0.105372
69 2 24.2491 18.3249 48.6573 0.00877242 -0.182731 -0.190582 0.115107 -0.223588 -0.117158
70 2 6.91747 32.6118 55.3482 -0.695744 2.54825 1.66093 -0.3578 -0.772522 0.554173
71 2 41.8886 22.7194 49.1817 1.65399 -1.67516 -2.19904 0.0364638 0.0643927 -0.23642
72 2 6.78173 0.14935 49.6047 1.89735 -2.48806 1.11335 -0.152152 -1.10768 -0.605418
73 1 48.5503 37.5179 19.4105 1.72156 0.24447 -1.65289 1.11183 0.541619 0.545907
74 1 25.2446 3.76708 24.664 1.5033 -1.43938 -0.0208455 0.0125675 -0.11927 -0.459185
75 1 53.6867 0.723227 23.6693 -0.0544892 -0.140745 2.69603 0.70079 -0.261179 0.088595
76 1 55.8555 6.52474 42.1105 2.07664 -0.494749 -0.901265 -0.41917 -0.192505 0.255682
77 2 52.5201 56.3785 13.9214 0.0326485 2.23561 -1.68562 0.0463838 0.230743 -0.316775
78 2 3.48894 48.3984 27.3238 0.064209 -0.221309 -0.461101 0.112406 0.69281 0.114293
79 2 25.1886 -1.41066 44.3033 1.24588 2.11913 0.277271 -0.257376 -0.185385 -0.336416
80 2 21.8203 3.02152 5.22643 -1.75057 1.2164 -1.34295 -0.800411 -0.180049 0.525457
81 2 30.3252 21.9503 17.3422 0.124932 -0.828296 -0.898156 -0.413264 0.538003 0.108529
82 2 36.3457 21.754 47.1296 1.44154 -0.871386 -2.39312 0.0337641 -0.429152 -0.453614
83 1 50.4262 19.8838 4.22419 -2.52636 -0.472464 2.74962 0.0713266 -0.739588 -0.0990686
84 1 43.2384 35.2505 47.8049 -0.386068 -0.991385 -0.748663 -0.26488 0.227423 -0.373748
85 2 7.65705 20.5619 51.9904 0.734537 0.0698974 -3.50079 -0.00567414 0.922696 -0.293874
86 1 43.4697 44.4621 43.1723 3.81339 5.48194 -3.94216 0.148822 0.43198 -0.253909
87 1 42.7699 24.6446 47.3045 0.198676 -0.650546 2.00365 -0.103867 -0.481421 0.165877
88 1 46.1479 29.3143 42.2069 1.89381 2.46457 -0.737847 -0.117032 -0.584235 0.237096
89 2 44.5569 41.7822 43.585 0.334994 2.02978 1.2524 -0.116198 -0.407708 -0.10634
90 2 27.1584 23.3522 -0.979351 2.27837 0.237792 0.00350082 -0.0472479 0.301969 0.157901
91 2 12.3623 52.1455 46.4617 -1.19022 1.23878 0.0709408 0.186609 0.0226383 0.280675
92 2 19.4613 3.18958 24.9542 -2.43829 -0.352553 -0.235381 0.151492 -0.0391424 -0.753644
93 2 25.8962 34.9825 21.1446 -2.24035 1.00784 -0.911038 -0.115475 -0.174793 -0.50644
94 1 34.0252 53.9485 7.94817 1.40312 -2.3398 1.29826 -0.259896 -0.35707 0.237587
95 2 36.9262 29.2345 56.2063 -0.825804 -2.97656 0.525091 -0.55419 0.221614 -0.205251
96 1 22.1493 9.80228 10.0553 0.326942 1.38521 -0.597793 -0.227276 -0.0470717 -0.0979431
97 1 18.9825 30.8047 6.36277 2.28972 1.24146 -1.38457 -0.906836 0.0538682 -0.141014
98 1 7.51259 51.2618 26.2548 1.85107 1.74924 1.15173 0.100927 0.0710163 0.101744
99 2 7.7634 28.2379 16.1186 2.69099 0.00131483 0.0757287 0.440425 -0.151759 0.469034
100 2 7.21639 3.01542 30.4493 -1.83496 0.817668 0.312885 0.0586135 0.379934 0.177653
101 1 3.66591 26.2288 57.17 -3.31216 -0.329711 -1.31046 0.363304 -0.471177 -0.109968
102 1 15.4886 13.0301 39.9668 -1.46113 -1.19279 4.90703 -0.529546 -0.404802 0.176628
103 2 12.9494 2.3843 54.4485 -3.71867 0.985178 1.43665 -0.0194602 -0.859244 0.0880755
104 2 0.936749 28.682 15.154 1.30973 0.754864 -2.82682 0.583162 0.396362 0.040926
105 2 33.9756 32.5369 4.62294 -1.84493 2.84178 -1.08136 -0.0984451 -0.451312 0.549018
106 2 21.2996 44.5637 0.873708 -3.48902 -1.63933 1.29151 0.0320014 0.336816 0.343752
107 1 54.1219 12.1046 2.16254 3.03272 -0.734096 1.32569 0.551952 0.347752 0.475495
108 1 26.7087 51.8464 8.1848 -1.95011 -3.4635 2.89404 0.0996309 -0.918151 -0.0325121
109 2 28.9171 -1.46435 20.3212 -0.0546339 2.46702 -0.566269 0.10376 -0.185291 0.00120632
110 2 20.2379 55.4068 31.2229 -2.61052 -1.56966 -0.948362 -0.115776 -0.871924 0.358129
111 1 21.8857 9.60292 14.6681 -2.7293 1.75896 0.465649 -0.46362 -0.160251 0.425108
112 1 48.3576 55.5221 50.2034 1.41899 3.78723 0.0642559 -0.115579 -0.736544 0.0455116
113 2 48.1484 29.4895 33.4844 0.90742 -0.582882 3.05438 -0.0476315 -0.529817 -0.00411436
114 1 53.7206 47.3242 20.6916 -3.44265 -1.12679 -2.27491 -0.188732 -0.152069 -0.0140968
115 1 56.0397 56.5097 38.1439 -0.801708 1.53403 -0.549066 0.410997 0.140124 0.32924
116 2 33.7291 42.9235 13.1732 4.29658 0.154259 -0.546209 0.535045 -0.416877 0.0102934
117 1 17.2573 55.4963 14.1196 3.00645 -2.21872 0.627521 0.49309 -0.456344 0.44523
118 2 4.25803 32.4064 20.6663 -0.32126 -3.37825 0.680598 -0.192046 0.0707442 0.202724
119 1 38.5285 8.1627 50.0019 -1.73047 -3.18579 0.788802 -0.34454 0.185203 -0.22488
120 2 33.5644 32.3727 35.9633 -1.81815 1.52801 -0.616524 -0.0863301 0.162251 -0.318884
121 1 16.8285 36.3934 36.8948 0.230725 1.58127 -1.61754 -0.753522 0.308767 -0.201093
122 2 1.30841 17.761 53.1577 1.39282 -1.56709 2.43065 -0.0716429 -0.300673 0.497079
123 2 11.4752 11.0017 16.6828 0.31793 -1.94962 -0.0130137 -0.107465 0.152583 -0.222656
124 2 49.0302 54.5894 26.3913 0.693795 0.144305 1.16914 0.118887 0.259185 0.0142462
125 2 48.9377 10.4461 10.8002 2.51057 -1.16825 -1.68416 -0.0807915 -0.397202 0.480921
126 2 54.439 13.0493 45.2396 -1.21086 1.89293 2.12557 -0.384772 -0.908424 0.331335
127 1 1.79175 50.2774 23.1053 -1.48061 -3.38663 -0.712128 -0.443922 0.2653 -0.539647
128 2 39.4514 49.3573 39.1833 -0.309752 -0.851929 0.247906 0.251405 -0.0600397 -0.673976
129 2 31.5271 19.1249 35.7221 -2.2327 4.12043 0.776428 -0.792307 0.402065 0.305204
130 1 13.569 7.87264 41.4368 1.43008 1.9961 -1.23274 0.269538 0.0553308 0.340593
131 2 9.44714 35.9292 11.567 -0.047697 -1.00776 1.47804 0.164648 0.635852 0.379799
132 2 22.1835 10.034 -1.10302 -1.14061 -4.1183 -0.599158 -0.197969 0.296439 -0.209532
133 2 43.9491 39.9527 32.9546 -0.139045 -1.04356 0.711311 -0.538454 0.358233 0.174094
134 1 47.2535 38.0379 10.5561 -1.53221 1.68972 -0.119495 0.36615 -0.0611134 0.167028
135 1 4.15659 8.49454 34.9787 2.68628 0.537095 -2.38709 0.264529 0.515123 -0.629657
136 2 56.1082 27.3594 46.6801 -1.01833 0.454204 -0.0104571 -0.200087 -0.00325548 0.0852966
137 1 23.6733 5.71615 14.3941 0.660499 2.4978 -0.496576 -0.534718 -0.0454579 -0.176284
138 1 13.4776 29.9927 51.5778 0.978773 0.785368 -0.598165 -0.180393 0.145532 -0.118427
139 2 39.4641 57.2369 30.3819 -1.81256 0.356845 0.819034 0.085575 0.0437082 -0.109004
140 1 14.4312 5.6695 40.4268 -4.03748 2.33433 3.99261 0.334622 0.0571878 0.326363
141 1 47.1666 7.39159 23.6401 -0.434814 -0.444968 0.237483 0.283517 0.416572 0.14109
142 2 23.7555 31.2164 53.6232 0.887729 -0.621447 2.55367 -0.0353218 0.418773 -0.0532291
143 2 4.09287 9.10237 10.1799 0.751175 2.15809 2.53301 -0.142264 -0.146817 0.0203813
144 2 22.1835 19.4884 53.7022 -0.853992 1.89309 2.92746 -0.523957 0.0803082 1.0645
145 1 55.2099 42.7625 49.472 1.45492 -0.224402 0.831226 -0.705324 -0.0725495 -0.0904262
146 1 50.2704 34.233 8.88449 -1.3197 1.91386 -2.26669 -0.338534 0.135664 0.0433348
147 2 20.0871 52.6326 9.77477 -2.56068 0.340443 1.46639 -0.120791 0.558321 0.13135
148 2 47.3275 34.9291 45.2832 0.445609 0.934797 0.14479 0.361447 0.176461 0.464524
149 1 13.074 14.396 33.4371 1.89897 0.465902 2.43863 -0.325394 0.412759 -0.754433
150 2 23.0726 57.2949 41.4348 0.556215 0.550915 -0.860315 -0.125562 0.993165 0.596201
151 2 12.6077 18.783 49.0461 1.10264 2.43077 2.29255 0.305007 0.188291 -0.308499
152 2 7.97009 22.0725 24.7735 0.442263 -2.4499 1.25487 0.572205 0.486855 -0.672753
153 2 48.9922 29.5845 26.0474 -3.46626 -3.02535 2.60064 -0.495484 0.0432294 -0.449445
154 1 32.43 1.83048 6.66866 2.80286 0.108901 -1.65063 -0.103316 0.641808 0.476396
155 1 23.6954 9.50943 17.1852 1.46848 -1.47111 3.32304 0.307617 -0.260648 -0.118109
156 2 29.8698 42.9819 50.1942 0.378596 -2.46918 0.250226 -0.776413 -0.327455 -0.177805
157 2 54.9813 -1.44921 12.1733 3.10685 -0.451457 0.266525 -0.307454 -0.105501 0.176982
158 2 10.9526 43.7749 55.5844 -2.21072 -0.676806 0.493652 0.161107 0.0387316 -0.0203755
159 2 19.6903 23.9504 45.7959 -0.109416 -1.48934 -1.97969 -0.321256 -0.373289 -0.341394
160 2 40.7371 34.7595 17.5321 -0.414347 0.86101 -1.20119 -0.034385 0.437847 0.0958728
161 2 38.1924 8.38207 38.0674 -0.174598 -0.762408 -1.729 0.180688 -0.0518902 -0.0627373
162 1 18.5576 25.6851 16.6959 1.37771 1.21726 0.490947 0.104449 -0.106254 0.0983869
163 2 16.3123 49.9875 56.2101 0.753515 0.411287 1.4886 0.315998 0.177965 -0.331081
164 2 49.7683 6.7009 6.38504 0.143771 -2.82645 0.0186652 -0.304642 -0.515165 4.16832e-04
165 1 49.1806 27.1288 5.80285 -0.0661719 1.88471 0.223467 0.350373 0.661681 -0.0668063
166 1 42.9195 11.223 45.1125 0.397325 2.70601 -1.65292 0.306826 0.183638 -0.706274
167 1 55.4446 35.8001 5.4674 -0.378565 -0.757529 -4.69571 0.414413 -0.208213 -0.43578
168 2 26.3412 2.29627 46.4057 2.44849 0.889065 -0.898546 0.203419 -0.675527 -0.0185022
169 1 17.6632 25.1365 26.7398 -1.22146 -3.5314 -2.19711 -0.427219 0.172545 -0.0636502
170 2 28.9835 27.0567 17.4962 3.13083 -0.202139 1.3176 0.0509901 -0.64316 -0.60765
171 1 23.2318 27.5297 32.623 -1.62086 -1.59405 -0.119492 0.0405732 0.12386 -0.122536
172 2 1.00738 37.5444 0.123183 1.48971 -0.872556 3.67564 -0.459434 -0.208742 0.218166
173 2 54.3821 0.485759 14.6102 2.31986 1.55711 -0.774085 -0.233832 -0.235089 -0.475242
174 1 14.8811 18.1787 33.7127 1.82397 -0.168579 -2.2131 -0.239613 -0.27182 -0.0870616
175 1 55.2327 13.0541 4.10914 0.081904 -1.55558 0.244871 0.599325 -0.193763 0.0961149
176 1 31.8815 53.0722 24.675 0.247872 -2.25921 -0.617169 -0.110219 -0.237213 0.203237
177 1 10.0315 8.79545 15.4348 0.59616 0.891485 -0.301898 0.776198 -0.496638 -0.0592779
178 2 35.8472 0.366215 -0.388075 -4.2907 0.928266 -0.947424 -0.46016 -0.209814 -0.077808
179 1 7.58158 2.60664 49.46 1.79775 -1.51058 -0.568961 0.123427 0.487889 0.209185
180 2 29.5268 52.742 8.51771 -0.480322 1.48104 -2.24553 0.397733 -0.485079 -0.293713
181 1 22.9246 8.84526 22.6589 2.25045 -1.56381 0.378642 -0.171078 -0.718495 0.394393
182 1 52.2479 43.4794 30.1797 -2.07126 1.88237 -1.65828 -0.431577 0.207617 0.0963245
183 2 47.398 10.8192 21.8135 0.97029 0.373596 -1.06356 0.437407 -0.389078 -0.788646
184 1 19.033 44.7081 24.4529 -2.03859 -0.506471 -2.36557 -0.0668365 0.0909174 0.300734
185 1 30.0034 4.55622 45.235 3.88211 1.69061 -1.92018 -0.0846752 0.086995 -0.474852
186 1 56.4925 4.8181 31.6013 1.30606 0.869285 1.81846 0.0838363 -0.104237 -0.29085
187 1 44.4154 25.7464 3.79957 -0.357502 -0.501249 3.37712 -0.848644 0.0219136 0.210117
188 2 23.9148 46.042 2.63552 -0.784195 0.148713 3.31863 -0.120144 -0.0459834 -0.219733
189 2 -1.56921 52.0962 11.5764 0.612145 -1.17654 0.623476 0.677798 0.190972 -0.373022
190 1 17.5517 42.7452 46.4721 -1.41778 1.68423 -4.29883 0.168261 -0.427884 -0.0514433
191 2 50.8858 42.972 32.3828 0.0644071 -0.662182 0.251624 0.145957 -0.291481 -0.560988
192 2 20.4559 47.0088 38.6245 -1.0098 3.70549 -0.269713 0.336067 0.331905 -0.390628
193 1 0.903514 26.2594 49.5746 0.369428 -2.8054 0.550037 0.544479 0.253838 -0.178461
194 1 13.4522 23.2794 26.2139 -0.0991227 0.345527 0.358281 0.481917 -0.549051 -0.171835
195 2 14.3107 -1.45872 -0.670875 -0.429896 -0.636248 -4.08915 -0.198226 0.230421 0.61761
196 2 45.1371 4.67014 11.6875 -0.734424 -1.25702 -1.11955 0.229707 0.125469 0.436597
197 1 24.5029 9.93299 39.1432 -0.0953292 0.679223 4.18669 0.251144 -0.138841 -0.16428
198 2 8.80984 17.4479 5.25632 0.272676 1.8039 0.712376 -0.488555 -0.221281 -0.0614835
199 2 0.0971194 16.2507 31.3579 0.932714 -0.262545 -0.602845 0.240452 -0.124535 0.644899
200 2 41.8555 50.2586 28.1071 0.313513 -1.747 -1.40138 0.907125 0.719246 0.0749364
201 2 41.0809 37.465 40.1311 1.88298 2.64404 2.91021 0.815754 0.252067 0.27677
202 2 20.2997 27.5521 3.12421 0.121479 1.15652 2.07689 0.263335 -0.372787 -0.234338
203 1 21.9694 9.21773 5.73004 1.18793 -3.18527 1.39325 -0.393717 0.0880956 0.388375
204 1 12.3058 44.4816 6.38586 1.14013 -1.45404 0.822835 0.231492 0.0592782 -0.0974106
205 1 45.6231 30.8617 3.47272 -0.651198 -0.707776 -1.56801 -0.0845005 -0.374332 0.441326
206 1 52.9105 45.1593 25.651 -1.92985 -1.82123 2.66214 0.61467 -0.595071 0.0499847
207 1 21.4943 53.287 13.0497 0.646683 2.14036 -1.75596 -0.142849 0.0668595 0.562687
208 1 23.7309 41.0335 -0.227702 -4.33148 -1.42716 -0.56578 0.0964271 0.274871 0.0676398
209 2 36.0359 47.9843 17.9746 -1.12733 -1.27154 -1.25151 0.331348 -0.540731 -0.296115
210 2 34.3871 5.70104 40.7261 1.55618 0.577442 -0.620792 -0.644654 0.21957 0.912627
211 2 20.3371 1.58237 11.4396 0.00946445 -0.305641 0.729413 -0.629012 0.352606 0.164689
212 2 -0.449327 21.2941 27.2343 1.02759 0.894041 2.61725 -0.221868 0.695646 -0.201378
213 2 1.25351 45.8346 17.4681 0.833053 0.149897 -0.975983 -0.631379 0.42352 -0.255279
214 2 23.6399 25.4121 27.364 0.321408 -0.653804 0.783969 0.0100395 -0.564943 -0.0868432
215 1 12.4221 12.5911 19.0026 -0.105267 1.8878 3.63948 -0.242796 -0.111957 -0.113157
216 1 2.42193 52.045 43.5612 -0.23299 2.51556 1.16608 0.325113 0.137053 0.0144936
217 2 24.684 2.68145 27.4152 1.35648 -0.193813 -0.221786 0.147999 0.0284289 0.5056
218 2 46.6971 42.1809 14.5087 -0.347563 -0.149336 -1.90161 0.169447 0.0937791 0.280834
219 2 30.5951 0.0219788 7.9479 -3.14887 0.131035 0.922048 -0.443243 -0.34316 -0.432761
220 1 22.5352 18.0225 2.55803 0.368205 -3.03262 3.15209 -0.261747 0.0655191 0.269955
221 1 23.8498 0.41674 14.3694 0.417244 0.451611 -1.05823 0.502224 -0.0810558 0.0240685
222 1 50.9621 26.7465 9.85818 2.42399 -2.20021 -0.880464 0.639922 0.297033 0.167025
223 1 19.857 4.38208 -0.347363 -1.96343 0.0958191 -2.33513 0.442825 0.264276 -0.113539
224 1 55.6693 57.0253 5.81694 -1.96744 -1.3529 2.48234 -0.125185 -0.135479 -0.291351
225 2 32.2279 3.32417 49.5455 -1.0907 -0.424124 0.230653 0.525012 0.449009 -0.0631177
226 2 9.86506 2.71391 26.5449 -0.275611 1.57019 0.972656 0.120999 0.0875491 -0.0744612
227 1 29.3423 17.636 34.4488 0.0423816 0.0184253 0.665963 -0.169226 -0.594131 0.790665
228 1 37.4846 2.19816 54.3566 -0.781856 -1.65567 1.67927 -0.385063 0.111747 0.194419
229 1 54.6055 0.167786 26.6286 0.579226 3.62747 1.13889 -0.608393 -0.0241846 -0.190302
230 1 14.0403 1.77885 24.9103 -1.05383 -1.06592 1.0677 0.0813011 0.601537 0.012841
231 2 55.706 40.4469 28.8568 -1.62413 0.123667 -1.152 -0.450875 -0.072932 -0.499163
232 2 36.8075 38.1573 15.4654 0.582868 -0.761003 -1.0285 -0.119011 -0.126674 -0.155238
233 2 26.8481 30.1622 10.4922 0.0897107 1.60414 -1.02911 -0.206088 -0.149912 -0.401562
234 1 8.44378 17.191 2.34913 3.22828 1.80711 0.483877 0.311329 0.526999 0.205205
235 1 19.2139 53.079 2.65896 1.57059 -1.36843 2.01711 -0.142013 0.00780729 0.143029
236 2 1.04259 11.8257 -0.905404 0.506886 -1.34512 -0.175753 -1.12149 -1.09792 0.656431
237 1 2.95131 18.3223 51.1793 -0.0636262 -2.16984 -1.19165 -0.0787779 0.423337 -0.285474
238 1 30.7966 48.1842 47.8027 0.11065 5.04255 -1.90975 0.801472 0.461662 -0.923346
239 2 -1.46632 19.2395 46.1469 2.49847 1.31328 1.85228 0.689789 -0.353044 0.103672
240 2 28.5768 49.7559 8.55423 -2.26895 1.17039 -1.85359 0.0265486 0.0643631 -0.237133
241 2 51.9156 6.57523 36.5623 -1.73043 2.80219 1.26556 0.298822 -0.187581 -0.683774
242 2 41.3052 56.7189 46.8909 0.458166 -0.129941 -0.544867 -0.435208 0.0351752 0.0174953
243 1 10.2261 55.7738 41.2007 3.27093 -1.17212 2.58418 -0.417923 -0.315171 0.350697
244 1 37.9354 46.76 30.7144 -0.145683 0.537875 -0.158941 0.436409 -0.298102 -0.744075
245 1 16.53 21.8309 12.3949 -0.00962832 0.016605 -1.26644 0.19057 0.554157 -0.495713
246 2 25.9969 53.6451 20.2422 -2.84831 -1.74624 -0.164591 0.00896604 -0.499468 -0.328564
247 1 47.4931 34.4539 39.0681 -0.651932 1.308 2.80556 0.205603 -0.538738 -0.360601
248 1 14.2437 3.09433 1.32295 2.70056 -2.60473 -1.11189 0.273941 0.0798116 0.366894
249 2 13.2156 14.1572 45.9692 -1.79977 2.24956 1.49347 0.0684027 -0.762651 -0.159399
250 2 1.75526 -0.173786 12.0021 -0.221959 3.27875 -0.00160747 -0.218492 0.233427 0.216795
251 1 15.9788 55.7247 2.40317 0.0673396 0.6146 -0.830201 0.735584 0.611385 0.493476
252 2 14.3227 16.5993 15.9456 -2.54258 -0.695154 -2.67962 -0.372521 -0.43294 0.0654657
253 1 9.61713 23.6377 43.9395 0.61873 -1.86105 3.33989 0.241312 0.449622 -0.0865129
254 1 0.411779 49.3643 5.12432 2.52436 1.55012 -1.43171 0.108181 -0.596478 0.258467
255 2 19.4024 42.2622 31.7463 1.2129 0.35761 -0.353267 -0.679193 -0.289173 0.297154
256 1 25.8896 54.991 44.3258 4.37925 0.255569 -0.121064 0.00681251 -0.105479 -0.323104
257 1 14.436 34.9258 26.1504 1.93951 -2.01983 -0.564692 0.710039 -0.389677 0.306604
258 1 50.4804 50.1501 17.2825 0.688509 -1.29389 2.87008 0.371288 -0.162755 0.203329
259 2 0.903034 0.323891 49.2707 2.03558 -1.66175 1.95816 0.144007 -0.111989 0.475056
260 2 42.6755 51.2854 4.85575 -1.77318 2.28456 0.198808 0.0382987 0.0348609 0.365915
261 2 28.3074 3.88678 33.6266 3.63542 -0.611277 -1.83914 -0.440765 -0.139784 0.513691
262 2 29.3963 16.604 -1.3702 0.280374 -3.46402 2.52666 0.982727 -0.695383 0.161892
263 1 25.8656 23.3949 19.4943 -0.0822158 -0.232558 1.91642 -0.320878 0.258282 -0.781945
264 1 47.5888 35.6022 10.9925 2.32242 4.33868 -2.30766 0.202694 0.49883 0.29675
265 1 15.654 47.0613 33.2937 -1.24929 -2.90585 -5.52852 0.554241 0.262611 0.233612
266 2 13.5352 4.33618 10.4903 0.414119 0.039828 0.600985 0.388243 -0.0140834 -0.133122
267 2 9.64409 24.2651 40.9886 -1.3617 -1.14225 0.82081 0.09986 -0.124545 -0.284758
268 1 12.7389 20.2173 29.751 2.43937 2.58626 -3.13636 0.0581118 -0.474986 0.717799
269 2 4.74681 5.2443 57.1463 2.11509 1.69748 -1.07158 -0.166886 0.76762 -0.0455112
270 2 54.4311 47.2663 40.1691 -0.192574 -2.93487 -2.88129 -0.630218 0.676166 0.246967
271 2 45.2847 18.8077 22.579 -3.1653 2.60232 -1.60125 0.189166 0.0347994 0.223478
272 1 5.00058 34.1806 23.0262 -3.18425 -1.23637 1.17881 0.172072 -0.669127 -0.342869
273 1 24.5162 14.0938 56.709 4.10043 1.02192 -2.21505 0.0266198 0.23391 -0.139059
274 1 48.6131 10.392 38.528 -1.13084 1.05802 -1.38028 0.384021 -0.309238 0.182782
275 1 20.9698 7.39098 46.1225 2.32629 -1.03362 1.42478 0.383249 -0.177287 -0.188024
276 1 8.16971 33.5902 35.8354 1.6882 -1.50592 -0.0248054 -0.349696 -0.482807 0.222457
277 2 8.04272 26.999 37.0129 0.115683 0.948062 0.602101 -0.114131 -0.0466623 -0.428177
278 2 40.2366 12.2503 11.3204 2.38875 4.28172 -2.81559 0.153157 0.299773 -0.457284
279 1 23.6505 41.9107 7.97433 1.13489 -0.831217 -4.93989 -0.287681 0.0770947 0.156737
280 1 37.2038 47.4335 46.2581 -0.905809 0.796258 2.10791 -0.0533178 -0.132097 -0.141744
281 2 50.6576 22.0896 5.41026 -0.956059 0.150588 0.641678 -0.299424 0.678492 0.400763
282 1 49.9363 6.47544 53.3891 0.638159 2.42208 1.88277 -0.4226 -0.169518 -0.516866
283 1 7.31173 1.94808 9.69727 -1.2901 0.648832 2.93996 0.0636062 0.0714712 0.362223
284 2 41.4383 32.2755 29.2075 2.37358 -2.00635 3.76418 0.493135 -0.260901 -0.181749
285 1 34.1842 13.7313 38.7637 0.659067 1.14166 0.569143 0.28094 0.682868 -0.0540078
286 2 -0.0965308 45.9168 0.697031 -0.795445 -0.245215 -2.61395 -0.241676 -0.0930604 0.466771
287 1 27.0999 51.9202 53.405 0.844648 -2.02988 -0.737848 -0.566902 0.09501 0.0565531
288 1 11.8906 23.9471 44.9471 -0.881749 0.451488 1.16267 0.281298 -0.0855087 -0.0293178
289 1 -1.06943 14.4298 24.4954 -4.17691 0.825584 1.40623 0.444046 0.223468 -0.525039
290 2 9.89972 3.95837 45.4034 0.53296 -1.09106 -1.60752 -0.427578 -0.333482 -0.399892
291 2 15.6691 27.3786 52.6789 0.855566 0.0591426 1.25029 0.0194694 0.44338 -0.210403
292 1 13.5389 16.1825 48.0202 3.28853 0.375663 1.10933 -0.705397 -0.0797812 0.110269
293 1 26.9412 52.4272 37.2858 -1.62123 1.29576 -3.23019 0.103362 0.400111 -0.47575
294 1 48.0949 26.1803 32.9671 1.15243 0.579659 -5.10267 -0.500404 -0.339716 0.339165
295 2 48.1568 53.4809 15.9538 1.22237 -0.912616 -1.30613 -0.259959 0.465156 0.201173
296 1 49.5676 4.75007 26.9313 0.80149 -1.66655 -0.474738 0.202732 0.0940317 -0.166964
297 1 48.9136 55.1571 10.7546 -2.88521 -1.75412 -1.33145 -0.139448 -0.40491 -0.0843588
298 1 33.526 39.9908 43.6964 -3.71266 -2.86491 -0.536643 -0.687326 -0.478741 0.366048
299 1 24.5321 40.2919 19.98 -1.46583 -0.354126 -1.21412 0.423615 -0.263398 -0.347307
300 1 49.3407 39.0832 23.722 -1.51851 0.372362 2.67578 0.191206 -0.0389923 -0.338502
301 1 24.1515 19.3835 40.9795 -4.13711 -0.108882 0.195771 0.554893 0.336299 -0.345687
302 2 36.5747 31.8896 36.2796 0.971879 -2.8539 0.394322 0.136292 -0.307623 -0.371249
303 1 11.7747 3.62869 36.15 -1.0705 2.07425 -2.75158 0.499847 -0.217218 -0.00489739
304 1 0.817041 43.172 25.0304 -3.94816 -2.30511 0.980574 -0.18791 0.111353 0.345059
305 1 4.59921 3.43973 -0.0145633 2.03549 -0.453245 -2.6691 0.167058 -0.434405 0.727147
306 1 1.82097 54.6283 51.9368 -1.06653 -1.4345 -4.19514 0.00391968 -0.616648 -0.822308
307 2 51.3774 16.1175 41.8046 2.07984 0.0244421 -4.08999 0.188745 -0.130536 -0.127505
308 1 9.10593 -0.283866 36.3856 -0.859179 2.665 1.96262 0.672815 -0.101376 -0.0294468
309 1 1.49031 52.1422 15.0293 0.0774263 3.93234 -0.504189 -0.24616 0.184003 0.291735
310 1 45.4033 47.0596 24.4693 -1.75042 -3.39059 -0.758676 -0.391485 0.0405724 0.0388298
311 2 18.8191 21.9337 48.1639 0.030276 0.302941 -2.74993 -0.242567 0.0566117 -0.232388
312 2 6.78649 40.6677 5.94797 -0.91597 -1.15922 -0.011651 0.0085356 0.198416 0.00582306
313 1 55.2502 17.5246 7.39955 0.727756 -0.588434 -1.28345 -0.194589 -0.111613 0.19522
314 1 56.0714 24.877 47.687 3.10003 2.32776 0.385648 -0.324324 -0.061818 -0.022592
315 2 32.5629 25.5133 48.8091 -2.47325 0.417899 -1.95831 0.130778 0.566137 0.221256
316 1 45.4754 32.1636 35.6593 0.554642 -0.742455 -0.764274 0.462054 -0.216283 0.202145
317 1 16.062 41.5689 50.4035 2.2406 -3.71112 0.754149 0.29229 -0.227348 0.0165977
318 1 42.1253 -0.0168755 2.83465 1.51566 1.57817 1.25826 -0.384542 5.24035e-04 -0.393328
319 2 44.731 56.0653 32.523 -2.08872 -1.42495 0.257116 0.488946 0.443752 -0.00463431
320 1 53.4387 35.536 36.8569 8.76305 2.11443 0.348844 0.171894 0.634459 -0.642224
321 2 12.8721 22.596 6.62209 -2.01922 1.80562 -1.20098 -0.435172 -0.253738 -0.511573
322 1 16.8661 37.392 5.71087 2.17333 0.413718 1.23027 0.208349 0.264813 -0.158211
323 1 44.0183 7.87945 42.5444 -1.37724 1.49552 -1.07617 0.411082 0.180199 0.302689
324 1 51.8667 38.0904 31.6053 2.91078 0.392657 -0.856433 -0.0422077 0.292166 0.293481
325 1 14.7134 16.8643 50.1088 -1.42563 1.33489 -2.74515 0.256644 0.486982 0.07467
326 2 39.702 0.578235 4.11222 -0.297793 0.320485 -3.65017 0.173757 0.299159 0.413777
327 2 21.2706 -1.33109 38.8504 -1.14373 1.65662 0.193555 -0.176194 0.0314524 0.313031
328 2 28.0594 51.5759 31.7167 0.589805 1.59722 -1.11555 0.187999 0.224053 0.38969
329 1 56.773 8.85549 9.28879 3.14186 -3.95169 -2.87158 0.065951 0.170668 0.424641
330 2 40.9909 20.9597 30.1615 0.375345 0.585375 0.237449 -0.562261 -0.579433 -0.434814
331 1 11.4341 51.6482 3.2347 0.834855 -1.99072 -0.818904 -0.430559 -0.149463 0.467435
332 2 28.6963 18.5319 30.0174 2.13379 -0.168651 1.10311 0.290694 -0.287512 -0.160809
333 2 15.9401 52.7263 47.6582 2.06304 1.76659 -1.75397 -0.17126 -0.335256 -0.00732291
334 2 44.993 51.3079 50.8162 1.9331 1.85091 0.0784161 0.435868 0.141278 0.0764109
335 2 8.80306 29.2597 4.50597 -0.403348 1.01318 0.896054 0.517653 0.410623 0.584478
336 1 5.36229 50.5477 5.4696 0.74388 -0.0703146 2.93267 0.0621824 -0.32623 0.0298383
337 2 48.6274 29.7583 43.1826 -2.32325 1.45304 -1.5416 0.221732 -0.146309 0.0535135
338 2 30.409 12.438 23.1699 0.307722 -4.22745 -0.179386 0.331771 0.219204 0.0611518
339 2 4.60926 21.6289 56.1808 1.06979 -0.408661 0.201465 -0.26195 0.0899612 0.279987
340 1 23.0216 0.38385 53.8523 2.04858 1.12377 1.07965 0.0142861 -0.0622895 0.0891383
341 1 43.9189 15.2588 38.3072 -0.584291 -2.59076 -2.03035 -0.163023 0.607281 -0.256999
342 2 0.425539 5.2737 25.7814 0.698554 -0.951279 1.33747 0.13463 0.117606 0.285332
343 1 18.9561 44.2835 13.0466 2.34516 0.820122 -1.97166 -0.450247 0.130072 -0.12747
344 2 29.2665 29.631 12.8356 -1.24472 0.012698 2.35079 0.292672 -0.189101 -0.642134
345 2 4.24901 34.364 17.9853 -1.95977 -1.0168 1.24335 -0.0808913 0.25036 -0.0782604
346 1 52.6694 34.2797 34.4468 2.41585 2.66546 1.20855 -0.571078 0.476371 0.149792