ITEM: TIMESTEP
22350003
ITEM: NUMBER OF ATOMS
11664
ITEM: BOX BOUNDS pp pp pp
-1.57521 57.3752
-1.57521 57.3752
-1.57521 57.3752
ITEM: ATOMS id type x y z vx vy vz fx fy fz
1 1 28.138 33.5348 0.6733 -0.387083 -2.95993 -0.175061 0.635347 -0.084044 -0.104481
2 2 30.0404 5.63739 31.4202 -1.30563 0.0624551 -1.60721 -0.20725 -0.491675 -0.0831701
3 2 30.612 53.791 15.8997 -0.169374 0.152975 -1.57261 -0.528054 -0.492713 -0.436156
4 1 40.1739 10.3994 8.78422 -2.70728 0.834083 -1.07377 -0.0937988 -0.0990631 -0.203068
5 2 46.0185 55.7482 56.7113 0.785647 0.767117 1.604 0.380696 -0.28303 0.142176
6 2 37.6823 28.6364 15.9194 -0.831235 -0.240053 -0.0305814 -0.127821 0.819176 -0.0706984
7 2 49.339 10.7907 30.9877 0.94851 -5.16225 -0.384137 0.207481 -0.160085 -0.620312
8 1 -0.243583 0.188989 19.1824 0.823053 -0.969493 3.99018 -0.273837 -0.666677 -0.244998
9 2 10.4505 14.5339 5.45058 -0.0488672 -2.55179 -1.64795 0.0514044 -0.378838 -0.103958
10 2 30.404 54.0411 32.422 0.211911 -0.772895 2.26152 -0.499707 -0.308159 -0.0675671
11 1 6.39259 30.6685 46.8992 2.7712 -2.92224 -0.00477379 0.655611 0.795316 -0.523496
12 1 46.7316 25.0867 40.4668 2.01338 -0.578769 2.00646 0.200814 0.135762 -0.0807089
13 2 50.5103 45.5 13.4594 -1.84771 0.177581 1.09629 -0.714981 -0.00503334 -0.206947
14 1 55.7333 27.5394 53.5172 -1.95504 -0.81193 -1.80371 0.181793 0.11217 -0.25437
15 1 -0.40339 43.4902 36.9899 2.61223 -3.86512 2.40008 0.635229 -0.237975 0.332526
16 2 29.569 43.3049 26.9324 -0.279193 -0.872398 -2.1233 0.128288 0.0114409 0.133163
17 2 54.2416 39.684 24.6083 -4.45509 3.48067 -1.65923 -0.20462 0.103057 -0.0154564
18 1 8.42718 1.47723 47.2236 -1.73119 2.88113 0.425757 0.105861 -0.754532 -0.0363799
19 1 44.4322 17.6672 41.9283 -3.63811 -0.607063 -0.37773 -0.114235 -0.206428 -0.278973
20 2 29.3854 15.3492 46.2807 0.446489 0.307295 -1.84889 0.253111 0.0186163 0.201864
21 2 16.2469 24.4082 5.05663 -0.712543 1.22784 1.89355 -0.31537 0.528763 -0.738843
22 2 12.2428 19.8153 10.9437 -1.21593 -0.180202 0.729975 0.0857877 -0.0520051 0.156962
23 2 10.4354 12.5249 56.3401 0.993451 -1.78029 1.09808 0.362247 0.193665 -0.0604737
24 1 10.3796 30.7608 45.7672 -2.23018 2.68383 0.0524294 -0.195015 -0.60857 -0.187547
25 2 52.2632 41.0994 -1.29144 -0.128687 1.46449 0.878632 0.183172 0.262852 -0.129522
26 2 12.9211 9.40515 46.3967 0.902787 0.234318 1.11489 -0.391124 0.171011 -0.249735
27 1 13.091 2.99319 8.3066 0.646283 0.171799 0.205467 0.768695 0.383375 -0.499002
28 1 28.9752 51.3134 15.7099 -0.444149 -0.149286 1.66847 0.988436 0.286575 0.403546
29 2 27.0015 38.5026 2.67246 0.40216 0.337309 -0.146477 0.0319103 0.482389 0.699928
30 1 32.8201 31.029 17.3263 -2.26216 -2.83478 -0.456297 0.765506 -0.22942 -0.234406
31 1 49.4282 32.3757 32.0423 -1.09385 2.19924 0.283168 0.0572005 -0.816144 0.308894
32 1 38.6583 11.0529 38.6529 -2.58484 1.35636 0.286027 0.112659 -0.636944 0.14782
33 2 25.3382 3.36045 12.257 -1.73214 0.679462 -0.15353 0.556543 -0.318534 0.25478
34 1 6.43355 30.7138 39.5536 1.62746 -1.98913 -0.0614511 0.152937 0.0235996 -0.171698
35 1 33.4554 30.8866 54.6613 -1.68933 1.73855 0.474187 -0.830057 0.0610838 -0.372047
36 1 21.9221 8.01622 55.9514 -2.02107 0.535919 2.52297 0.0764242 -0.215587 -0.206126
37 1 4.57618 57.3205 28.562 0.972539 1.21037 -1.00515 0.0271738 -0.126336 -0.0734102
38 1 35.2361 53.19 13.3267 -0.640365 -2.59559 0.0434053 -0.96743 -0.146677 -0.183429
39 2 0.675017 15.0125 -0.7212 2.1743 -1.10399 0.551113 -0.120809 0.123833 -0.0596965
40 2 34.1338 44.0473 -1.03122 -0.638855 -0.690808 0.00462507 -0.568047 0.668907 -0.519992
41 1 41.7185 15.2103 29.0415 -1.36438 1.9553 0.467625 0.414962 0.207498 -0.320206
42 1 8.54474 53.827 20.3363 0.0987383 1.13946 0.500201 0.167102 0.0353386 0.0191782
43 1 10.3334 39.3355 14.9986 3.21264 -0.131721 0.921654 0.326975 -0.298329 0.170771
44 1 39.7396 30.5913 15.6476 2.10096 -0.419527 0.425605 -0.537734 0.0434505 -0.285981
45 2 1.03843 35.4535 7.36583 -0.408754 0.582961 0.403139 0.534665 0.0500749 0.511203
46 2 3.8413 30.3742 27.8679 1.91014 1.17862 -2.30079 0.272062 -0.00126311 -0.383877
47 2 4.94376 25.5059 12.9934 -0.467535 1.28176 -0.0371877 -8.38823e-04 0.0273603 0.564061
48 2 56.8071 50.0744 51.9132 1.22469 -1.1045 -2.20089 0.244292 -0.604186 0.169592
49 1 23.6773 6.94952 0.183076 0.378668 -2.72968 -1.59332 0.104757 0.0848009 -0.875671
50 2 23.5732 51.0058 17.1926 -1.61896 -0.22899 1.15605 0.119626 -0.678505 0.249474
51 1 11.7967 20.1368 42.7995 -4.08238 3.50759 -1.87395 -0.417201 0.479985 -0.425662
52 2 10.2703 24.4515 24.451 -1.20661 0.94056 -0.564416 -0.459286 0.0455055 0.152602
53 1 46.6706 31.6608 41.4036 -0.636606 0.442607 0.592361 0.366253 -0.500183 -0.219679
54 1 13.3974 3.4084 49.5631 1.00901 -0.302706 1.93425 0.139916 -0.446915 0.137951
55 1 19.8546 5.60876 5.66929 -1.27128 2.84176 1.36275 0.793342 0.492669 0.0296143
56 1 36.2249 11.123 9.18061 3.6171 1.35396 0.932084 -0.270777 0.316553 0.643703
57 2 3.77356 55.2233 41.5834 -1.81346 0.0908506 -2.30377 0.465559 0.232829 -0.0187816
58 2 44.1468 36.8115 29.9418 1.45273 -2.12816 -0.40975 -0.302175 -0.457074 -0.706649
59 1 6.51644 2.17153 23.3924 -0.808805 -2.0239 0.224024 0.379566 -0.966444 -0.374265
60 2 29.4647 40.0219 27.7438 2.25217 -1.0601 -1.73826 -0.186434 0.233225 0.104804
61 2 27.6434 45.0751 29.1293 -3.01577 -1.20654 -1.59669 -0.225911 -0.410712 -0.0721936
62 1 12.8313 11.711 8.18352 -0.145064 0.338798 1.04969 0.558459 0.224795 -0.634972
63 2 7.29746 24.8078 15.0064 -0.347397 -2.55822 1.02717 -0.366478 0.823745 0.116627
64 1 26.9803 0.618801 4.33811 -2.50391 0.0232162 -0.323238 -0.368512 0.0170754 0.119935
65 2 55.7597 0.303408 53.9584 -1.73362 -3.2312 3.35669 -0.594824 0.0453419 0.0834973
66 1 4.34783 6.38556 8.27311 -1.46351 0.659822 -2.79196 -0.282618 0.756688 -0.0951077
67 2 23.3954 1.127 11.6852 -0.717507 0.398456 -1.37982 -0.010815 0.628749 0.317034
68 1 48.5331 45.0889 38.1119 2.91205 -1.85996 2.87226 -0.291872 -0.68972 0.168361
69 2 24.2492 18.3256 48.6575 -0.0330562 -0.0759267 -0.148729 0.0824816 -0.280588 -0.0796614
70 2 6.92046 32.6009 55.3413 -0.555763 2.84336 1.41918 -0.300681 -0.630822 0.582083
71 2 41.8817 22.7263 49.1898 1.63362 -1.69571 -2.09178 0.053118 0.0388574 -0.261964
72 2 6.77452 0.159019 49.5992 1.95245 -2.01864 1.36149 -0.114945 -1.09951 -0.571194
73 1 48.5443 37.5174 19.4179 1.01002 -0.105622 -1.98924 1.22321 0.60903 0.563914
74 1 25.2387 3.77326 24.6636 1.49725 -1.36202 0.271677 0.0032449 -0.131906 -0.502672
75 1 53.6871 0.724122 23.6588 -0.493376 0.0128828 2.62227 0.742499 -0.243633 0.146295
76 1 55.8461 6.52698 42.114 2.32263 -0.37469 -1.0443 -0.396324 -0.201448 0.217611
77 2 52.5195 56.369 13.9282 0.0132946 2.12862 -1.54523 0.0452871 0.266803 -0.340237
78 2 3.48935 48.3994 27.3258 0.0244514 -0.513057 -0.507659 0.0750156 0.686534 0.107429
79 2 25.1835 -1.41859 44.3016 1.34153 2.185 0.408556 -0.199167 -0.133824 -0.285568
80 2 21.8267 3.0171 5.23277 -1.41091 1.28884 -1.55395 -0.797267 -0.166761 0.476351
81 2 30.3243 21.9542 17.3461 0.301866 -1.04569 -0.937235 -0.422709 0.492898 0.0790714
82 2 36.3398 21.7573 47.1383 1.4161 -0.680198 -2.18107 0.0808489 -0.470876 -0.538806
83 1 50.4358 19.8849 4.21366 -2.55575 -0.0232388 2.79306 0.0318764 -0.736222 -0.0517492
84 1 43.2392 35.2545 47.807 -0.229181 -1.11735 -0.523334 -0.250438 0.189549 -0.366374
85 2 7.65458 20.5626 52.0036 0.739184 -0.313776 -3.35316 -0.0186357 0.889565 -0.389677
86 1 43.4543 44.4404 43.1874 3.68738 5.17283 -3.75231 0.256441 0.571241 -0.361848
87 1 42.7686 24.6467 47.2962 0.265792 -0.360702 1.88657 -0.117639 -0.470996 0.213535
88 1 46.1397 29.3037 42.2098 1.94449 2.80977 -0.882854 -0.055522 -0.558677 0.242159
89 2 44.555 41.7734 43.5796 0.380324 2.19775 1.28747 -0.0995366 -0.394356 -0.0642677
90 2 27.1493 23.3516 -0.978531 2.26562 0.113743 -0.0784641 0.100141 0.283071 0.230022
91 2 12.3676 52.14 46.4612 -1.26603 1.22245 -0.0399141 0.176375 0.0504967 0.242219
92 2 19.4714 3.19155 24.9545 -2.47871 -0.339899 0.0758167 0.0490236 -0.0192707 -0.716669
93 2 25.9051 34.9782 21.148 -2.17493 1.07887 -0.695888 -0.185263 -0.164714 -0.506328
94 1 34.0191 53.9568 7.94375 1.54769 -2.1013 1.14564 -0.219979 -0.42173 0.261492
95 2 36.9288 29.2465 56.2034 -0.582897 -3.04648 0.612538 -0.590819 0.120117 -0.210568
96 1 22.1479 9.79713 10.058 0.454442 1.39991 -0.53832 -0.192916 -0.00505442 -0.0964654
97 1 18.9724 30.7998 6.36864 2.8278 1.20481 -1.28954 -0.870517 0.0634876 -0.167898
98 1 7.50582 51.2543 26.2503 1.76813 1.69961 1.06753 0.166766 0.0877675 0.172091
99 2 7.75351 28.2378 16.119 2.48503 0.0547854 -0.128653 0.522169 -0.100486 0.496436
100 2 7.22424 3.01307 30.4481 -1.83951 0.646092 0.233041 -0.0305357 0.42749 0.19822
101 1 3.68015 26.2296 57.1745 -3.51731 -0.042622 -1.24786 0.320558 -0.473278 -0.0925076
102 1 15.4941 13.0348 39.9472 -1.11241 -0.935965 4.74783 -0.616011 -0.438674 0.337761
103 2 12.9646 2.38024 54.4422 -3.69138 1.339 1.39245 -0.0953913 -0.816424 0.115504
104 2 0.932662 28.6793 15.1656 1.04472 0.586503 -2.82459 0.664363 0.396418 -0.0407819
105 2 33.9827 32.525 4.62828 -1.78953 3.02017 -1.30832 -0.156357 -0.402914 0.527075
106 2 21.3137 44.5701 0.869481 -3.48319 -1.78166 1.13948 -0.0470699 0.342342 0.369709
107 1 54.1099 12.1084 2.15844 2.66858 -0.938068 1.01864 0.638582 0.325592 0.531222
108 1 26.7166 51.8585 8.1737 -2.00197 -2.83943 2.86756 0.0753921 -1.12943 0.114729
109 2 28.9173 -1.47367 20.3236 -0.0954074 2.53466 -0.564483 0.0892119 -0.143757 -0.00724947
110 2 20.2484 55.4117 31.2269 -2.5463 -1.19688 -1.09715 -0.177276 -0.882883 0.34833
111 1 21.8962 9.59613 14.6671 -2.43599 1.8551 0.201179 -0.493853 -0.160651 0.444279
112 1 48.3513 55.5054 50.2026 1.48157 4.22145 0.031575 -0.0947287 -0.702842 0.0611284
113 2 48.1442 29.4913 33.472 0.921922 -0.354413 3.04379 -0.0243533 -0.54776 0.0425481
114 1 53.7335 47.3281 20.7009 -3.30938 -1.01999 -2.26483 -0.240859 -0.196495 -0.0132413
115 1 56.0427 56.5031 38.1463 -1.05561 1.42824 -0.745584 0.426948 0.203909 0.319176
116 2 33.7122 42.9222 13.1757 4.03818 0.334343 -0.547626 0.669776 -0.435676 -0.00155443
117 1 17.2462 55.504 14.1179 2.68713 -1.91781 0.353232 0.54947 -0.52748 0.456081
118 2 4.2597 32.4199 20.6639 -0.229719 -3.39358 0.590878 -0.240051 0.0148453 0.218555
119 1 38.5347 8.17611 49.9979 -1.50976 -3.27682 0.924667 -0.376741 0.123179 -0.22422
120 2 33.5714 32.3666 35.9654 -1.77137 1.45137 -0.486086 -0.128018 0.193779 -0.294937
121 1 16.8269 36.3873 36.9008 0.679692 1.38615 -1.48215 -0.724638 0.329505 -0.240085
122 2 1.30341 17.7673 53.1478 1.42037 -1.42911 2.20793 -0.0633717 -0.345424 0.546482
123 2 11.4743 11.01 16.6829 0.362948 -2.00121 0.0844489 -0.106541 0.0987224 -0.237933
124 2 49.027 54.5884 26.3867 0.638794 0.0382423 1.15593 0.138479 0.241193 0.0434888
125 2 48.9271 10.4509 10.8077 2.5301 -0.993525 -1.86767 -0.021107 -0.423986 0.392539
126 2 54.4429 13.0413 45.231 -1.04721 2.27119 1.97897 -0.383904 -0.886484 0.353313
127 1 1.79775 50.2907 23.1076 -1.21317 -3.52295 -0.383178 -0.432838 0.192512 -0.541249
128 2 39.4526 49.3602 39.1814 -0.421347 -0.830088 0.526836 0.277102 -0.0399541 -0.645522
129 2 31.5352 19.109 35.719 -1.87905 3.91927 0.640799 -0.870183 0.531262 0.332122
130 1 13.564 7.8652 41.4418 1.25808 1.963 -1.42881 0.292812 0.0485298 0.308331
131 2 9.44792 35.9335 11.5618 -0.123235 -1.26946 1.30337 0.192612 0.605155 0.439779
132 2 22.188 10.0511 -1.10013 -1.05118 -4.20062 -0.498043 -0.219973 0.10784 -0.266458
133 2 43.9488 39.9569 32.9518 0.0955568 -1.18921 0.621976 -0.569867 0.334233 0.244518
134 1 47.2596 38.0308 10.5572 -1.74838 1.72524 -0.223902 0.349316 -0.0604755 0.177123
135 1 4.14677 8.4935 34.9873 2.49177 0.200714 -1.95837 0.368065 0.590635 -0.775005
136 2 56.1114 27.3576 46.6798 -0.92252 0.45726 -0.0507312 -0.248734 -0.0132011 0.104551
137 1 23.6701 5.70667 14.3962 0.972873 2.48802 -0.392596 -0.49513 0.0702821 -0.165526
138 1 13.4738 29.9897 51.5795 1.07838 0.691583 -0.520645 -0.149885 0.160713 -0.134579
139 2 39.4711 57.2348 30.3784 -1.83967 0.346574 0.858477 0.0492398 0.00382824 -0.0806968
140 1 14.4481 5.66078 40.4109 -4.21167 2.28019 3.7754 0.249812 0.114994 0.37807
141 1 47.1682 7.39438 23.6394 -0.61061 -0.714134 0.15067 0.296405 0.470032 0.143827
142 2 23.752 31.2191 53.6123 0.905647 -0.792698 2.55604 -0.0532169 0.392365 0.032409
143 2 4.09031 9.09407 10.1702 0.814476 2.21009 2.51746 -0.160219 -0.107353 0.0439291
144 2 22.1866 19.4811 53.6908 -0.622886 1.82605 2.46456 -0.566473 0.230197 1.10869
145 1 55.2026 42.7629 49.468 1.86956 -0.174421 0.875165 -0.663726 -0.0912185 -0.0563455
146 1 50.2747 34.2254 8.89406 -1.11334 1.80976 -2.29127 -0.337148 0.202187 0.0436816
147 2 20.0974 52.6311 9.76945 -2.49625 0.0987768 1.4022 -0.173184 0.581643 0.166215
148 2 47.3255 34.9254 45.2826 0.284885 0.853485 -0.0498231 0.396597 0.204237 0.454579
149 1 13.0663 14.395 33.4263 2.09653 0.204578 2.89947 -0.329068 0.444725 -0.76843
150 2 23.0704 57.2929 41.4384 0.610727 0.12841 -1.10837 -0.134719 1.00009 0.579858
151 2 12.6039 18.7736 49.0362 0.962853 2.34517 2.38769 0.35028 0.207398 -0.152039
152 2 7.96928 22.0829 24.768 0.197773 -2.64141 1.53619 0.581504 0.427008 -0.66189
153 2 49.0051 29.5965 26.0367 -3.25114 -3.0277 2.74569 -0.507601 -0.0218275 -0.241521
154 1 32.4186 1.83144 6.67633 2.84345 -0.27463 -1.92931 -0.0377842 0.619436 0.445236
155 1 23.69 9.51543 17.1721 1.27747 -1.30656 3.37794 0.317047 -0.27677 -0.071794
156 2 29.8676 42.9911 50.1926 0.707408 -2.31964 0.320088 -0.778487 -0.369601 -0.152928
157 2 54.968 -1.44681 12.1728 3.21753 -0.399154 0.188724 -0.227286 -0.139994 0.18943
158 2 10.9619 43.7773 55.5818 -2.27344 -0.69379 0.499637 0.14404 0.0440503 -0.0101763
159 2 19.6907 23.9561 45.8031 0.0238774 -1.32458 -1.83746 -0.308724 -0.399665 -0.323011
160 2 40.7384 34.7563 17.5372 -0.398045 0.677018 -1.22793 -0.0415527 0.428358 0.0354907
161 2 38.193 8.38554 38.074 -0.251339 -0.734952 -1.6867 0.182859 -0.0755552 -0.130391
162 1 18.5525 25.6802 16.6943 1.30297 1.27683 0.419605 0.137873 -0.0930347 0.13512
163 2 16.3098 49.9855 56.2032 0.628028 0.332406 1.61936 0.273491 0.19378 -0.292619
164 2 49.767 6.71226 6.38548 0.271484 -2.60345 0.0123673 -0.299543 -0.527409 0.0297769
165 1 49.1808 27.1221 5.8024 -0.285547 1.46587 0.2587 0.372045 0.712212 -0.0496272
166 1 42.918 11.2128 45.1178 0.208133 2.5918 -1.22389 0.314923 0.18495 -0.700924
167 1 55.4459 35.8026 5.48614 -0.628611 -0.610514 -4.39236 0.40889 -0.273912 -0.549997
168 2 26.3317 2.29277 46.4089 2.34603 1.16001 -0.887474 0.271772 -0.607643 -0.029345
169 1 17.6678 25.1509 26.7485 -0.944235 -3.62266 -2.14621 -0.481921 0.137171 -0.0978968
170 2 28.971 27.057 17.4907 3.0898 0.0763244 1.5698 0.132528 -0.672247 -0.589399
171 1 23.2385 27.5363 32.6232 -1.6394 -1.67188 -0.0484669 0.0248838 0.136856 -0.110901
172 2 1.00167 37.5474 0.109343 1.68134 -0.783623 3.5666 -0.451973 -0.208188 0.282897
173 2 54.3721 0.479982 14.6132 2.40731 1.65712 -0.574636 -0.188627 -0.243786 -0.464089
174 1 14.8738 18.1793 33.7213 1.95972 -0.0138574 -2.14749 -0.21204 -0.237111 -0.123262
175 1 55.2325 13.0604 4.10883 -0.282383 -1.42951 0.203677 0.599593 -0.217046 0.0395524
176 1 31.8803 53.0804 24.6778 0.314829 -2.10133 -0.748783 -0.111225 -0.276236 0.231918
177 1 10.0305 8.79175 15.4362 0.108935 1.1812 -0.261137 0.825816 -0.459025 -0.0743054
178 2 35.8637 0.36299 -0.38369 -4.06973 1.00546 -0.906345 -0.56814 -0.158282 -0.112441
179 1 7.57504 2.61387 49.462 1.71044 -1.80492 -0.691824 0.159216 0.483672 0.196769
180 2 29.529 52.7351 8.52689 -0.655983 1.67889 -2.11198 0.434072 -0.455417 -0.328634
181 1 22.9155 8.85107 22.658 2.3229 -1.10014 0.136756 -0.0741548 -0.802544 0.399842
182 1 52.2551 43.4717 30.1864 -1.80026 1.73837 -1.69731 -0.454923 0.261154 0.0365662
183 2 47.394 10.8178 21.8172 0.783099 0.534164 -0.731472 0.443053 -0.370608 -0.776314
184 1 19.0413 44.7098 24.4628 -1.98447 -0.565687 -2.53076 -0.1063 0.105625 0.248976
185 1 29.9878 4.55012 45.2417 3.91904 1.63085 -1.62229 -0.0467251 0.105142 -0.500611
186 1 56.4868 4.81505 31.5936 1.24266 0.931541 1.99134 0.121833 -0.102804 -0.283046
187 1 44.4154 25.7485 3.78692 0.15117 -0.493558 3.22231 -0.825217 -0.0459147 0.290117
188 2 23.918 46.041 2.62268 -0.726515 0.167199 3.40047 -0.149489 -0.0417987 -0.179708
189 2 -1.57038 52.1005 11.574 0.320036 -1.2483 0.772796 0.699695 0.15252 -0.335155
190 1 17.5578 42.7376 46.4888 -1.50688 1.94725 -4.24891 0.129259 -0.442026 -0.101582
191 2 50.8851 42.974 32.3812 0.0105396 -0.534056 0.488765 0.108846 -0.311285 -0.560451
192 2 20.4604 46.9939 38.625 -1.12139 3.53843 -0.115935 0.193164 0.44494 -0.3353
193 1 0.903335 26.2709 49.5717 0.0415569 -2.92332 0.661104 0.534459 0.142694 -0.187921
194 1 13.4535 23.2774 26.2123 -0.383402 0.670978 0.457063 0.454771 -0.523859 -0.155022
195 2 14.3126 -1.4553 -0.653344 -0.3403 -0.720774 -4.32753 -0.223789 0.171054 0.523871
196 2 45.1398 4.67581 11.6927 -0.813612 -1.29915 -1.28409 0.148024 0.0792341 0.344708
197 1 24.5036 9.93053 39.1261 -0.237167 0.763535 4.25446 0.215966 -0.140197 -0.06978
198 2 8.80879 17.4408 5.25396 0.476617 1.88349 0.73518 -0.473885 -0.162416 -0.0499127
199 2 0.0942559 16.2519 31.3608 0.826736 -0.207666 -0.865513 0.25692 -0.133755 0.598461
200 2 41.8547 50.2657 28.1127 -0.0683433 -2.04346 -1.42555 0.895288 0.6891 0.0445465
201 2 41.0738 37.4544 40.1195 1.53635 2.52089 2.77653 0.814806 0.319799 0.344256
202 2 20.2996 27.5471 3.11629 0.00326579 1.31882 2.17447 0.294389 -0.398206 -0.234242
203 1 21.9643 9.23099 5.72547 1.42185 -3.21582 1.15262 -0.379686 0.0212435 0.400368
204 1 12.3019 44.4871 6.38297 0.995303 -1.48625 0.872478 0.242014 0.0503495 -0.0678967
205 1 45.6252 30.864 3.48008 -0.60819 -0.455151 -1.80565 -0.055674 -0.455775 0.344654
206 1 52.9183 45.1654 25.6405 -2.27874 -1.4334 2.62023 0.539613 -0.676819 0.0803656
207 1 21.4917 53.278 13.0577 0.72798 2.08014 -2.08028 -0.126376 0.124898 0.509343
208 1 23.7484 41.0392 -0.224731 -4.35592 -1.55173 -0.566831 -0.00436784 0.138825 -0.0620562
209 2 36.0404 47.9885 17.9796 -1.26282 -1.03861 -1.12863 0.312935 -0.553662 -0.280166
210 2 34.3802 5.69944 40.729 1.81961 0.487307 -0.99789 -0.605697 0.203809 0.871154
211 2 20.3367 1.58452 11.4372 0.271104 -0.455338 0.655159 -0.607903 0.356414 0.183457
212 2 -0.452951 21.2913 27.2237 1.12013 0.601184 2.69012 -0.219314 0.68444 -0.152504
213 2 1.25028 45.8339 17.472 1.10042 -0.0256152 -0.864236 -0.635376 0.405449 -0.269024
214 2 23.6387 25.4143 27.3609 0.308592 -0.409801 0.810375 0.0492781 -0.585035 -0.0412324
215 1 12.4226 12.5838 18.9881 0.0269606 1.94595 3.67706 -0.192252 -0.0848248 -0.0201874
216 1 2.42384 52.0346 43.5562 -0.405497 2.42355 1.13626 0.241875 0.159245 0.0805921
217 2 24.6788 2.68285 27.4165 1.27927 -0.20632 -0.437204 0.211988 0.0315201 0.512487
218 2 46.6981 42.1812 14.5169 -0.413622 -0.18923 -2.00562 0.143672 0.0953011 0.217772
219 2 30.6072 0.021824 7.94433 -2.93423 0.2773 1.0969 -0.558341 -0.348789 -0.39833
220 1 22.5336 18.0349 2.54637 0.508219 -3.04967 2.96814 -0.199791 -0.00164915 0.326789
221 1 23.8488 0.415485 14.374 0.109483 0.50255 -1.0692 0.509122 -0.0877363 0.0151679
222 1 50.9527 26.7557 9.86233 2.01453 -2.36938 -0.982103 0.700555 0.264742 0.170059
223 1 19.8655 4.3826 -0.337508 -2.22178 -0.0837463 -2.2502 0.413252 0.326562 -0.160066
224 1 55.6763 57.0298 5.80721 -1.8837 -1.25867 2.63602 -0.145166 -0.171591 -0.221292
225 2 32.2326 3.32683 49.544 -1.31391 -0.616462 0.252323 0.533609 0.461467 -0.0406677
226 2 9.8667 2.7083 26.541 -0.32821 1.53472 0.998032 0.128575 0.0740797 -0.0499522
227 1 29.3419 17.6355 34.4469 0.144055 0.374814 0.17852 -0.165512 -0.578892 0.811771
228 1 37.4871 2.20552 54.3495 -0.544958 -1.71559 1.55802 -0.393016 0.0899108 0.199823
229 1 54.6018 0.153943 26.6238 0.947737 3.60679 1.25135 -0.605923 0.0818027 -0.183004
230 1 14.0449 1.78445 24.9061 -1.08672 -1.41611 1.0513 0.0296693 0.553793 0.0377524
231 2 55.7115 40.4461 28.861 -1.42454 0.153714 -0.930877 -0.48587 -0.0698995 -0.538062
232 2 36.8049 38.16 15.4697 0.641295 -0.70498 -0.95526 -0.159346 -0.135697 -0.186547
233 2 26.8476 30.1556 10.4963 0.177302 1.662 -0.854407 -0.208034 -0.129554 -0.420211
234 1 8.43174 17.1846 2.34805 3.00671 1.48817 0.358525 0.409951 0.517942 0.206075
235 1 19.2076 53.0839 2.65171 1.65142 -1.36565 1.89414 -0.128518 -0.0135036 0.256219
236 2 1.04028 11.8305 -0.903466 0.958359 -0.897246 -0.449332 -1.00984 -1.01058 0.634867
237 1 2.95207 18.3317 51.1832 -0.0267012 -2.42021 -1.0112 -0.0422522 0.406521 -0.304986
238 1 30.797 48.1642 47.8088 -0.378487 4.7343 -1.34072 0.808502 0.539978 -0.944905
239 2 -1.47502 19.2342 46.1392 2.1979 1.46064 1.80079 0.720202 -0.347882 0.131679
240 2 28.5859 49.7508 8.56189 -2.27356 1.14367 -1.73967 0.00303444 0.0573031 -0.294401
241 2 51.9222 6.56439 36.5565 -1.85195 2.86496 1.55252 0.28142 -0.119358 -0.676833
242 2 41.3027 56.7188 46.8927 0.646183 -0.1407 -0.5482 -0.454762 0.015741 -2.81646e-04
243 1 10.213 55.7775 41.1905 3.49879 -0.982466 2.35722 -0.341566 -0.305723 0.389996
244 1 37.9363 46.757 30.7141 -0.421838 0.717563 0.289753 0.472226 -0.295142 -0.731739
245 1 16.5305 21.8316 12.3998 -0.120496 -0.321774 -0.963944 0.174233 0.557355 -0.496067
246 2 26.0083 53.651 20.2428 -2.83045 -1.52652 -0.0189258 -0.0820027 -0.531738 -0.35907
247 1 47.4954 34.4479 39.0562 -0.770722 1.59186 3.0022 0.186545 -0.398252 -0.293306
248 1 14.2336 3.1054 1.32846 2.50455 -2.62336 -1.32098 0.363675 -0.0112444 0.323797
249 2 13.2232 14.1479 45.9627 -1.82051 2.56095 1.55166 0.0360911 -0.71683 -0.120749
250 2 1.75657 -0.186018 12.0027 -0.123691 3.1633 -0.0881692 -0.245655 0.299671 0.192016
251 1 15.9797 55.7223 2.40768 -0.372107 0.231786 -1.11737 0.709963 0.647122 0.453692
252 2 14.3329 16.602 15.9566 -2.36541 -0.507568 -2.69397 -0.455199 -0.45116 0.0128277
253 1 9.61539 23.6458 43.9257 0.468072 -2.13075 3.37672 0.253032 0.443053 -0.0437956
254 1 0.402491 49.3569 5.13089 2.43361 1.89853 -1.57415 0.184885 -0.554029 0.213694
255 2 19.3972 42.2602 31.7479 1.4929 0.467915 -0.477962 -0.648337 -0.233185 0.293244
256 1 25.8722 54.9892 44.3255 4.35875 0.316714 0.0763268 0.0492402 -0.0957935 -0.326323
257 1 14.4294 34.9333 26.1531 1.49601 -1.77229 -0.749506 0.743651 -0.418843 0.302708
258 1 50.4776 50.1545 17.2715 0.457488 -1.18368 2.73603 0.387296 -0.196723 0.230115
259 2 0.895675 0.331093 49.2628 1.95485 -1.61218 1.74489 0.229638 -0.116589 0.52509
260 2 42.6822 51.2758 4.85582 -1.7882 2.25902 0.0343083 0.0392092 0.077582 0.410109
261 2 28.2925 3.88967 33.6343 3.79734 -0.55092 -2.04296 -0.338948 -0.143183 0.456496
262 2 29.396 16.6175 -1.37945 -0.145643 -3.12354 2.43131 1.03029 -0.900839 0.279393
263 1 25.8656 23.3963 19.4859 0.114213 -0.382652 2.36511 -0.324578 0.236799 -0.700074
264 1 47.5793 35.5853 11.0025 2.18269 4.00844 -2.47224 0.25097 0.576498 0.251521
265 1 15.66 47.0728 33.3159 -1.56382 -3.05572 -5.60745 0.484496 0.238635 0.0406637
266 2 13.5342 4.33657 10.4882 0.253 0.0469573 0.646662 0.371441 -0.0198986 -0.084895
267 2 9.65005 24.2697 40.9848 -1.39783 -1.07989 0.938001 0.0760521 -0.165933 -0.272461
268 1 12.7296 20.2066 29.7643 2.38671 2.84961 -3.55648 0.108162 -0.398195 0.673409
269 2 4.73877 5.23871 57.1498 2.17194 1.36153 -1.05483 -0.109645 0.813103 -0.0286398
270 2 54.4307 47.2781 40.1806 0.0844045 -3.19408 -2.97596 -0.678266 0.560087 0.211111
271 2 45.2971 18.7975 22.5858 -3.22379 2.57063 -1.68206 0.0991763 0.105509 0.163773
272 1 5.01405 34.1846 23.0212 -3.26547 -0.823769 1.38439 0.103478 -0.685367 -0.337375
273 1 24.4999 14.0904 56.717 4.06416 0.87512 -2.12406 0.0818192 0.246789 -0.153786
274 1 48.6176 10.3878 38.5335 -1.34691 1.23764 -1.48266 0.330398 -0.284934 0.157707
275 1 20.9612 7.39537 46.1162 2.08082 -0.919844 1.53081 0.418146 -0.194416 -0.164176
276 1 8.16302 33.5955 35.8356 1.88373 -1.2043 -0.159912 -0.297603 -0.505886 0.221951
277 2 8.04263 26.9952 37.01 0.1624 0.967063 0.779232 -0.10667 -0.0465628 -0.411472
278 2 40.2269 12.2339 11.3317 2.29936 4.11091 -2.60598 0.260417 0.49061 -0.523293
279 1 23.6458 41.9138 7.99471 1.29707 -0.892189 -4.99685 -0.249495 0.125903 0.0429258
280 1 37.2072 47.4297 46.2491 -0.853919 0.858931 2.17468 -0.115178 -0.0756674 -0.0840777
281 2 50.6606 22.0897 5.40857 -0.815328 -0.128673 0.471109 -0.362358 0.63961 0.401706
282 1 49.9327 6.46607 53.3803 0.887345 2.50796 2.17911 -0.398791 -0.11965 -0.462792
283 1 7.31745 1.9462 9.68641 -1.3236 0.598763 2.69547 0.0501096 0.0917309 0.434751
284 2 41.4289 32.2832 29.1922 2.15323 -1.89148 3.83 0.539229 -0.274093 -0.144234
285 1 34.1817 13.728 38.7611 0.477103 0.713092 0.606925 0.316133 0.724594 -0.0721685
286 2 -0.0928938 45.9173 0.708508 -0.690064 -0.200562 -2.79511 -0.253006 -0.117487 0.399105
287 1 27.0959 51.9279 53.4074 1.18207 -2.06009 -0.772661 -0.546396 0.00943828 0.0603979
288 1 11.8949 23.9453 44.942 -1.04113 0.495512 1.17355 0.245988 -0.0605527 -0.0092467
289 1 -1.05153 14.4271 24.4892 -4.41353 0.671165 1.70634 0.344749 0.282907 -0.465742
290 2 9.89765 3.96302 45.409 0.717202 -0.943538 -1.41889 -0.444209 -0.358955 -0.483871
291 2 15.666 27.3788 52.6731 0.843393 -0.123837 1.32875 0.0347834 0.42108 -0.16469
292 1 13.5253 16.1812 48.0155 3.70149 0.426699 1.02365 -0.662167 -0.0899359 0.168159
293 1 26.9479 52.4219 37.2979 -1.6805 1.05282 -2.93202 0.0962743 0.39692 -0.49752
294 1 48.0892 26.1776 32.9878 1.4531 0.768276 -5.27961 -0.491903 -0.28338 0.258024
295 2 48.1512 53.4843 15.9595 1.31802 -1.10797 -1.38526 -0.19656 0.461588 0.178067
296 1 49.5641 4.75739 26.933 0.661288 -1.72352 -0.362182 0.256818 0.0984349 -0.202439
297 1 48.9245 55.163 10.7602 -2.77959 -1.50322 -1.27546 -0.200564 -0.416132 -0.0962358
298 1 33.5399 40.0013 43.6986 -3.2764 -2.55448 -0.760515 -0.738024 -0.535511 0.371756
299 1 24.5386 40.2927 19.9846 -1.71034 -0.199403 -0.999013 0.384962 -0.245174 -0.357543
300 1 49.3465 39.0814 23.711 -1.61419 0.382037 2.86693 0.128708 0.00637174 -0.297566
301 1 24.1688 19.3845 40.978 -4.45986 -0.317278 0.395634 0.518949 0.349294 -0.312546
302 2 36.5707 31.9006 36.2776 0.908988 -2.70551 0.549801 0.157561 -0.382978 -0.365493
303 1 11.78 3.62071 36.1608 -1.369 2.19584 -2.73208 0.48587 -0.188689 -0.052058
304 1 0.833213 43.181 25.027 -3.80297 -2.35419 0.766783 -0.27948 0.0567865 0.35594
305 1 4.59184 3.44159 -0.00234162 1.91673 -0.183156 -3.1124 0.218601 -0.452636 0.737533
306 1 1.82587 54.6326 51.9519 -1.07907 -1.00297 -3.59847 0.0404507 -0.798715 -1.1288
307 2 51.3687 16.1176 41.8205 1.99185 0.0870682 -4.01061 0.21888 -0.165988 -0.232629
308 1 9.11062 -0.293961 36.3775 -1.25533 2.70885 1.96906 0.63314 -0.050062 0.00320944
309 1 1.49033 52.1261 15.032 0.224866 3.79014 -0.68383 -0.239456 0.273704 0.301206
310 1 45.4094 47.0727 24.4725 -1.49834 -3.3838 -0.782404 -0.433842 -0.0535653 0.0409654
311 2 18.819 21.9326 48.1742 0.129906 0.279306 -2.64197 -0.228281 0.053745 -0.26768
312 2 6.79065 40.6722 5.94855 -0.910446 -1.24261 -0.022719 -0.0312125 0.200167 0.0462285
313 1 55.2464 17.5271 7.4054 0.84737 -0.50597 -1.39123 -0.201096 -0.158521 0.16323
314 1 56.058 24.8677 47.685 3.27243 2.35705 0.402251 -0.251276 -0.0410206 -0.0328892
315 2 32.5728 25.5122 48.8166 -2.50775 0.16922 -2.03421 0.0407312 0.609315 0.144698
316 1 45.4733 32.1662 35.6625 0.27432 -0.602011 -0.888 0.458669 -0.243574 0.207968
317 1 16.0537 41.5831 50.4 2.05134 -3.55183 0.727182 0.323926 -0.286812 0.069758
318 1 42.1184 -0.0225212 2.82975 1.74014 1.57432 1.48132 -0.358347 0.00813305 -0.344554
319 2 44.7394 56.0707 32.5219 -2.28947 -1.60029 0.263445 0.467529 0.390209 -0.0266369
320 1 53.4033 35.5282 36.8545 8.61542 1.71867 0.753544 0.290468 0.662816 -0.69038
321 2 12.8802 22.5887 6.62696 -1.82488 1.89882 -0.980659 -0.475159 -0.193314 -0.524453
322 1 16.858 37.3904 5.7063 2.0323 0.267383 1.31397 0.249954 0.216268 -0.120678
323 1 44.0239 7.87418 42.5487 -1.61675 1.3694 -1.24933 0.380402 0.23085 0.269721
324 1 51.8545 38.0889 31.609 2.91435 0.220983 -1.03132 0.0229317 0.271981 0.284966
325 1 14.7197 16.8598 50.1194 -1.576 1.02969 -2.75971 0.242425 0.514268 -0.0199246
326 2 39.703 0.577842 4.12772 -0.368177 0.205832 -3.81713 0.160327 0.242594 0.389619
327 2 21.2752 -1.33698 38.8497 -1.06742 1.63411 0.0651615 -0.179299 0.0682146 0.292246
328 2 28.0572 51.5691 31.7214 0.504034 1.49091 -1.27437 0.215149 0.27218 0.365203
329 1 56.7599 8.87193 9.3012 3.07773 -4.03635 -3.10393 0.136665 0.117995 0.347458
330 2 40.9886 20.957 30.1602 0.608992 0.825893 0.417394 -0.542705 -0.559074 -0.416212
331 1 11.4306 51.6554 3.2391 1.0799 -1.89843 -1.07942 -0.376634 -0.149349 0.390262
332 2 28.688 18.5325 30.0129 2.00633 -0.0490178 1.15868 0.303256 -0.276737 -0.105894
333 2 15.932 52.7183 47.6647 2.11681 1.9059 -1.74215 -0.0914117 -0.329769 -0.0423922
334 2 44.9852 51.3001 50.8154 1.75306 1.78227 0.0249471 0.407508 0.176082 0.174993
335 2 8.80557 29.256 4.50345 -0.624302 0.831969 0.632158 0.528422 0.441437 0.659081
336 1 5.35992 50.5471 5.45846 0.71052 0.109202 2.89628 0.0454904 -0.26385 0.0823435
337 2 48.6364 29.7523 43.1884 -2.39626 1.51386 -1.55915 0.132785 -0.146964 0.0354254
338 2 30.408 12.4554 23.1708 0.162998 -4.30479 -0.205475 0.350504 0.162173 0.062136
339 2 4.60531 21.6308 56.1796 1.17559 -0.444128 0.0904563 -0.241997 0.0791274 0.243781
340 1 23.0136 0.379941 53.8475 2.01737 1.15319 1.02466 0.0830556 -0.037475 0.0889853
341 1 43.9207 15.2702 38.3148 -0.488866 -2.93715 -1.86845 -0.150148 0.539838 -0.270131
342 2 0.423517 5.27814 25.7763 0.635132 -1.00088 1.19972 0.162371 0.120712 0.360625
343 1 18.9464 44.28 13.0546 2.60125 0.732519 -1.88241 -0.399814 0.155948 -0.161057
344 2 29.2717 29.6308 12.8261 -1.36521 0.0958977 2.59577 0.280803 -0.203385 -0.52406
345 2 4.25733 34.3682 17.9805 -1.91734 -1.11378 1.27412 -0.112254 0.212114 -0.0723294
346 1 52.6584 34.2695 34.4419 2.74358 2.36224 1.11935 -0.513101 0.514952 0.140514
347 2 48.8853 26.603 24.5877 -1.39685 -1.01724 0.121984 -0.10217 -0.126096 0.326886