ITEM: TIMESTEP
22350007
ITEM: NUMBER OF ATOMS
11664
ITEM: BOX BOUNDS pp pp pp
-1.57511 57.3751
-1.57511 57.3751
-1.57511 57.3751
ITEM: ATOMS id type x y z vx vy vz fx fy fz
1 1 28.138 33.5109 0.671396 0.373159 -2.96088 -0.337815 0.611377 0.0869108 -0.161212
2 2 30.0295 5.63631 31.4069 -1.38017 -0.350348 -1.70473 0.0326084 -0.480142 -0.140905
3 2 30.6087 53.7905 15.8856 -0.675824 -0.252696 -1.94271 -0.662371 -0.462726 -0.430505
4 1 40.1519 10.4057 8.77486 -2.74462 0.714505 -1.25751 0.0369775 -0.0967045 -0.0955664
5 2 46.0259 55.7532 56.7246 1.05613 0.498847 1.75478 0.255691 -0.349244 0.207855
6 2 37.6753 28.6372 15.9188 -0.917433 0.440276 -0.141055 -0.0709112 0.780832 -0.189556
7 2 49.3472 10.7491 30.9826 1.11908 -5.21461 -0.902819 0.18962 0.0543583 -0.595398
8 1 -0.238251 0.178205 19.2131 0.481669 -1.73019 3.64619 -0.28894 -0.57718 -0.329063
9 2 10.4503 14.5125 5.43714 -0.0219687 -2.78208 -1.72782 0.0107685 -0.152665 -0.0794526
10 2 30.4039 54.034 32.4396 -0.232068 -0.973849 2.12971 -0.545401 -0.163179 -0.249902
11 1 6.41786 30.649 46.8965 3.49945 -1.9225 -0.672198 0.528769 0.850118 -0.563411
12 1 46.7484 25.0829 40.4822 2.17554 -0.343914 1.84687 0.0604462 0.244645 -0.185527
13 2 50.4933 45.5015 13.4674 -2.33937 0.211712 0.865158 -0.436953 0.0858654 -0.343011
14 1 55.7186 27.5336 53.5014 -1.68882 -0.610417 -2.08939 0.259691 0.219276 -0.210234
15 1 -0.379368 43.4584 37.0104 3.35241 -4.0209 2.71449 0.567344 -0.0164561 0.183708
16 2 29.5672 43.2979 26.916 -0.16885 -0.832355 -1.96766 0.132369 0.0824145 0.237908
17 2 54.2053 39.7121 24.5951 -4.56009 3.54897 -1.61779 -0.03122 0.0469918 0.117938
18 1 8.41399 1.49662 47.2267 -1.57067 1.9293 0.343929 0.158526 -0.812031 -0.0944094
19 1 44.4027 17.6615 41.9238 -3.69295 -0.836293 -0.742809 0.0294403 -0.170557 -0.320403
20 2 29.3897 15.3517 46.2666 0.62036 0.3198 -1.64087 0.152944 0.00796632 0.297525
21 2 16.2402 24.4197 5.06924 -0.975698 1.63909 1.21958 -0.304554 0.438086 -0.85377
22 2 12.2335 19.8138 10.95 -1.12458 -0.212917 0.820345 0.131435 -0.0245807 0.0539175
23 2 10.4446 12.5114 56.3486 1.28144 -1.58987 1.05285 0.309134 0.259524 -0.0475934
24 1 10.3609 30.7791 45.7667 -2.46755 1.87216 -0.165845 -0.189593 -0.725717 -0.169937
25 2 52.2627 41.1119 -1.28477 0.0329236 1.65748 0.761715 0.198434 0.189795 -0.146259
26 2 12.9269 9.40765 46.4047 0.515482 0.370107 0.901803 -0.520422 0.148102 -0.255722
27 1 13.0998 2.9966 8.30593 1.53041 0.669587 -0.383436 0.677931 0.431805 -0.465598
28 1 28.9765 51.3136 15.7252 0.775956 0.211106 2.12099 1.00724 0.303454 0.332701
29 2 27.0048 38.5068 2.6737 0.412841 0.729744 0.424072 -0.0130898 0.435726 0.640814
30 1 32.8059 31.0054 17.3215 -1.26001 -3.02379 -0.748247 0.886018 -0.0716028 -0.242011
31 1 49.4198 32.3892 32.046 -0.988117 1.16084 0.646507 0.114868 -0.885837 0.284919
32 1 38.6384 11.0606 38.6559 -2.36354 0.531226 0.46902 0.254426 -0.71652 0.152076
33 2 25.3263 3.36486 12.2567 -1.23376 0.39721 0.0713766 0.624841 -0.348362 0.275455
34 1 6.44736 30.6982 39.5524 1.80077 -1.89649 -0.223301 0.129622 0.133264 -0.0908432
35 1 33.438 30.9007 54.6632 -2.59945 1.80277 0.0471973 -0.6579 0.0416037 -0.326747
36 1 21.9063 8.01963 55.97 -1.90299 0.316969 2.04173 0.128312 -0.139384 -0.596069
37 1 4.58405 57.3294 28.5536 0.956337 1.03331 -1.09467 -0.0563426 -0.163114 -0.0733557
38 1 35.2261 53.1686 13.3262 -1.84515 -2.69704 -0.206523 -0.993907 -0.0143993 -0.228757
39 2 0.69192 15.0042 -0.716882 1.99894 -0.979415 0.50352 -0.297464 0.169561 -0.0558923
40 2 34.1268 44.0441 -1.03278 -1.07454 -0.0865495 -0.407132 -0.456772 0.755691 -0.446989
41 1 41.7097 15.2269 29.0438 -0.829937 2.18024 0.115234 0.461596 0.158635 -0.259446
42 1 8.54638 53.8362 20.3405 0.290567 1.19109 0.559559 0.146237 0.047327 0.0737855
43 1 10.3606 39.3331 15.0069 3.57556 -0.442687 1.1517 0.258607 -0.208812 0.204476
44 1 39.7537 30.5881 15.6497 1.42772 -0.348792 0.0728634 -0.570267 0.0725216 -0.294885
45 2 1.03714 35.4586 7.37082 0.0742153 0.71742 0.817077 0.600689 0.252734 0.457054
46 2 3.85757 30.3836 27.8483 2.12931 1.16107 -2.55625 0.235162 -0.0424955 -0.212808
47 2 4.94022 25.5162 12.9951 -0.418313 1.27942 0.451513 0.114024 -0.0386837 0.584966
48 2 56.8176 50.0634 51.8962 1.4222 -1.63133 -2.01068 0.217059 -0.633162 0.283234
49 1 23.6809 6.92833 0.166143 0.503615 -2.5562 -2.66431 0.0974791 0.204601 -0.877265
50 2 23.5608 51.0016 17.2027 -1.45995 -0.821761 1.38307 0.261384 -0.715325 0.281643
51 1 11.7623 20.167 42.7825 -4.48311 4.00174 -2.33117 -0.231469 0.317554 -0.316923
52 2 10.2592 24.4592 24.447 -1.57822 0.951373 -0.448245 -0.412365 -0.0220329 0.122068
53 1 46.6672 31.662 41.4072 -0.168285 -0.10596 0.32116 0.403018 -0.40288 -0.226344
54 1 13.4062 3.40398 49.5791 1.16905 -0.807968 2.08191 0.119004 -0.376811 0.099902
55 1 19.8483 5.63375 5.68047 -0.322742 3.34538 1.41741 0.764923 0.322674 0.0525831
56 1 36.2522 11.1354 9.1913 3.19218 1.73589 1.72423 -0.431794 0.30499 0.651766
57 2 3.76068 55.2249 41.5649 -1.42999 0.344111 -2.30539 0.443191 0.363386 0.0197452
58 2 44.1572 36.7928 29.9362 1.15704 -2.54092 -0.954826 -0.396071 -0.508176 -0.573267
59 1 6.51195 2.151 23.3922 -0.327171 -3.09002 -0.324239 0.406361 -0.784528 -0.519081
60 2 29.4818 40.0142 27.7305 1.99528 -0.851793 -1.54966 -0.419612 0.259041 0.343874
61 2 27.6186 45.064 29.1162 -3.18452 -1.55669 -1.68203 -0.164192 -0.409023 -0.122972
62 1 12.8331 11.715 8.18883 0.593589 0.667897 0.254642 0.651262 0.314558 -0.661897
63 2 7.29348 24.7902 15.015 -0.672679 -1.8473 1.10221 -0.3968 0.859269 0.0561067
64 1 26.9586 0.619204 4.3363 -2.86982 0.0590333 -0.13157 -0.222484 0.0407145 0.196253
65 2 55.7438 0.277954 53.9853 -2.21748 -3.13059 3.38536 -0.53595 0.204249 -0.0252882
66 1 4.33491 6.39449 8.25058 -1.77447 1.53542 -2.82242 -0.225292 0.679641 0.0536735
67 2 23.3897 1.1324 11.6754 -0.727491 0.922895 -1.06659 -0.0106712 0.604553 0.425029
68 1 48.5549 45.0707 38.1355 2.53759 -2.66396 3.00369 -0.326455 -0.621655 0.0413492
69 2 24.2493 18.3242 48.6559 0.0640589 -0.265115 -0.247522 0.145955 -0.165347 -0.151072
70 2 6.91494 32.6212 55.3545 -0.858147 2.19605 1.88931 -0.407334 -0.894712 0.521354
71 2 41.8949 22.7129 49.1721 1.66604 -1.64375 -2.29398 0.0166768 0.087254 -0.207326
72 2 6.78976 0.139216 49.608 1.82703 -2.95466 0.852223 -0.183461 -1.08925 -0.629865
73 1 48.558 37.5193 19.4047 2.35634 0.550175 -1.33205 0.973283 0.46402 0.511386
74 1 25.2507 3.76184 24.6635 1.51408 -1.5089 -0.282847 0.0205715 -0.1076 -0.401697
75 1 53.6866 0.723083 23.6803 0.35336 -0.302764 2.73177 0.64013 -0.271103 0.024496
76 1 55.8626 6.52311 42.1068 1.81694 -0.608726 -0.735578 -0.43847 -0.181853 0.290706
77 2 52.5196 56.3868 13.9148 0.0529309 2.32681 -1.81469 0.0497076 0.195841 -0.289276
78 2 3.48996 48.3976 27.3221 0.119097 0.0711709 -0.411789 0.14644 0.688763 0.119561
79 2 25.1934 -1.40155 44.3037 1.12617 2.03132 0.124295 -0.310294 -0.233674 -0.387168
80 2 21.8128 3.02691 5.22213 -2.08761 1.13858 -1.11267 -0.786756 -0.189895 0.564475
81 2 30.3253 21.9476 17.3389 -0.0459747 -0.592212 -0.847453 -0.393505 0.578989 0.132221
82 2 36.3513 21.7503 47.1191 1.44616 -1.04361 -2.56642 -0.0151824 -0.382656 -0.359538
83 1 50.4156 19.8812 4.2357 -2.47307 -0.916766 2.67548 0.107289 -0.719663 -0.149395
84 1 43.2361 35.2466 47.8009 -0.550423 -0.843621 -0.977819 -0.275147 0.259793 -0.379439
85 2 7.66054 20.5632 51.9755 0.735911 0.464375 -3.60451 0.0111093 0.939633 -0.187762
86 1 43.4847 44.4841 43.1558 3.87381 5.7037 -4.0674 0.0452657 0.290052 -0.153829
87 1 42.7702 24.6415 47.3122 0.140016 -0.944996 2.08876 -0.0895225 -0.486409 0.110517
88 1 46.1548 29.3234 42.2038 1.804 2.10483 -0.596491 -0.181661 -0.60291 0.229072
89 2 44.5577 41.7896 43.5895 0.282377 1.85545 1.19918 -0.133214 -0.420463 -0.147619
90 2 27.1674 23.3536 -0.978432 2.23008 0.368686 0.0555664 -0.18449 0.315623 0.0885799
91 2 12.3582 52.1499 46.4617 -1.10974 1.24407 0.196206 0.196193 5.85424e-04 0.310107
92 2 19.4519 3.18881 24.9527 -2.35369 -0.373305 -0.561345 0.253255 -0.0580576 -0.785888
93 2 25.8872 34.9862 21.1407 -2.27538 0.93256 -1.12383 -0.0454467 -0.18287 -0.496078
94 1 34.0303 53.938 7.95419 1.23413 -2.53686 1.43548 -0.298301 -0.287882 0.212169
95 2 36.9222 29.2228 56.2075 -1.05208 -2.86331 0.439203 -0.513079 0.319245 -0.202099
96 1 22.1505 9.80824 10.0532 0.180288 1.34457 -0.658108 -0.255147 -0.0886345 -0.0997775
97 1 18.9908 30.8097 6.35766 1.73186 1.27161 -1.46175 -0.931821 0.0435185 -0.110728
98 1 7.52065 51.2682 26.2595 1.89192 1.78799 1.19181 0.0303629 0.0539833 0.0282308
99 2 7.77507 28.2378 16.1196 2.85968 -0.0726704 0.267267 0.350403 -0.197099 0.435393
100 2 7.20968 3.01968 30.4506 -1.79298 0.967454 0.383095 0.142931 0.325497 0.153107
101 1 3.65377 26.227 57.1639 -3.08184 -0.614405 -1.38251 0.3989 -0.46516 -0.125036
102 1 15.4825 13.0253 39.9863 -1.7585 -1.43001 4.97394 -0.447993 -0.374887 0.0395342
103 2 12.935 2.3882 54.4536 -3.71268 0.61524 1.46889 0.0552186 -0.889685 0.0614713
104 2 0.943199 28.6853 15.1431 1.53905 0.922071 -2.79382 0.497659 0.391839 0.120549
105 2 33.968 32.5477 4.61972 -1.87502 2.64233 -0.847022 -0.0398951 -0.496949 0.559403
106 2 21.2858 44.557 0.879896 -3.46154 -1.49909 1.43126 0.104326 0.329171 0.313638
107 1 54.134 12.1026 2.1691 3.34109 -0.517851 1.59568 0.458183 0.36459 0.410539
108 1 26.7011 51.8308 8.19683 -1.8854 -3.96108 2.83711 0.115085 -0.716517 -0.156099
109 2 28.9169 -1.45385 20.3191 -0.00772891 2.38132 -0.563904 0.118043 -0.224667 0.0113532
110 2 20.2276 55.399 31.2193 -2.64666 -1.93375 -0.796345 -0.0490074 -0.843511 0.361614
111 1 21.8744 9.61026 14.6708 -2.99979 1.66359 0.716988 -0.421618 -0.155794 0.401222
112 1 48.3626 55.5356 50.2031 1.3423 3.33367 0.0854482 -0.139322 -0.761274 0.0234114
113 2 48.1514 29.4866 33.4964 0.882871 -0.802524 3.04418 -0.0701744 -0.506463 -0.0503514
114 1 53.7059 47.319 20.6827 -3.54242 -1.20564 -2.28512 -0.134556 -0.105716 -0.0163574
115 1 56.0362 56.5152 38.1419 -0.558527 1.59968 -0.347265 0.390346 0.0735137 0.335494
116 2 33.7465 42.9234 13.1714 4.4952 -0.0184253 -0.539573 0.393989 -0.399774 0.0222608
117 1 17.2702 55.4862 14.123 3.28729 -2.47217 0.893724 0.425879 -0.373543 0.429797
118 2 4.25723 32.3928 20.6694 -0.393219 -3.3378 0.76272 -0.147971 0.127566 0.183599
119 1 38.5209 8.15073 50.0041 -1.92817 -3.05598 0.653558 -0.302688 0.246695 -0.22102
120 2 33.5569 32.3788 35.9604 -1.84679 1.58982 -0.755669 -0.0453623 0.126161 -0.336737
121 1 16.8288 36.3999 36.8878 -0.232249 1.76254 -1.72755 -0.769454 0.285459 -0.158356
122 2 1.31464 17.7548 53.1671 1.36218 -1.68491 2.63095 -0.0755961 -0.252593 0.444182
123 2 11.4769 10.9945 16.6829 0.272584 -1.87478 -0.103609 -0.107395 0.204953 -0.205293
124 2 49.0325 54.5895 26.396 0.740109 0.256846 1.16914 0.0984817 0.271764 -0.0168777
125 2 48.9471 10.4416 10.7943 2.465 -1.33025 -1.46411 -0.139679 -0.365515 0.561592
126 2 54.4331 13.0565 45.2479 -1.37339 1.50666 2.26129 -0.380257 -0.91993 0.305231
127 1 1.78599 50.2636 23.1019 -1.75336 -3.20568 -1.03791 -0.451477 0.334912 -0.531126
128 2 39.4501 49.3533 39.1834 -0.20958 -0.88186 -0.0422534 0.222313 -0.0795371 -0.697329
129 2 31.5174 19.1419 35.7252 -2.55047 4.26205 0.898476 -0.703819 0.257015 0.26885
130 1 13.5755 7.88124 41.4319 1.58638 2.0329 -1.01732 0.242537 0.0629867 0.370065
131 2 9.44759 35.9255 11.5737 0.0158405 -0.733511 1.62561 0.135671 0.661876 0.313983
132 2 22.1789 10.0183 -1.1048 -1.21939 -3.95622 -0.67631 -0.171519 0.477011 -0.15417
133 2 43.9476 39.9485 32.9575 -0.359451 -0.887934 0.768832 -0.50257 0.379079 0.0954311
134 1 47.2473 38.0443 10.5563 -1.30709 1.65308 -0.0214447 0.376455 -0.0620619 0.155833
135 1 4.16828 8.49782 34.9683 2.815 0.825455 -2.7246 0.154861 0.432825 -0.477812
136 2 56.1032 27.3612 46.6796 -1.09266 0.454688 0.0205611 -0.148889 0.00427377 0.060674
137 1 23.6754 5.72666 14.3923 0.326231 2.43482 -0.608188 -0.565658 -0.166002 -0.190826
138 1 13.4816 29.996 51.5747 0.861468 0.86812 -0.663739 -0.206672 0.125138 -0.0957869
139 2 39.4566 57.2376 30.385 -1.76998 0.384315 0.767269 0.119104 0.0855541 -0.137315
140 1 14.4159 5.67949 40.4428 -3.81089 2.35274 4.17596 0.416788 2.38293e-04 0.271162
141 1 47.1647 7.39086 23.6413 -0.267434 -0.210793 0.321587 0.267904 0.354119 0.135104
142 2 23.7591 31.2142 53.6326 0.876358 -0.4407 2.51453 -0.0206696 0.435572 -0.136665
143 2 4.09641 9.11138 10.1905 0.694703 2.08858 2.53841 -0.126504 -0.186153 2.55632e-04
144 2 22.1798 19.4963 53.7141 -1.06805 1.8975 3.363 -0.486596 -0.0623466 0.983739
145 1 55.2141 42.7611 49.4746 1.0163 -0.262292 0.766873 -0.74005 -0.0515967 -0.122307
146 1 50.2641 34.2407 8.87599 -1.5249 1.97704 -2.24142 -0.334358 0.0697825 0.0432082
147 2 20.077 52.6337 9.78123 -2.60068 0.569681 1.51469 -0.0623361 0.523172 0.093534
148 2 47.329 34.9328 45.2837 0.590815 1.00365 0.342391 0.323643 0.146861 0.468358
149 1 13.0816 14.3988 33.4458 1.70605 0.702901 1.98944 -0.311462 0.365166 -0.726467
150 2 23.0749 57.2971 41.4315 0.504713 0.965813 -0.605523 -0.119434 0.963985 0.609486
151 2 12.6128 18.7931 49.0544 1.22034 2.50772 2.12764 0.247562 0.170551 -0.476865
152 2 7.97288 22.0633 24.778 0.681341 -2.23425 0.969357 0.556049 0.536149 -0.678733
153 2 48.9774 29.5724 26.0574 -3.67328 -2.99611 2.37474 -0.474663 0.100667 -0.619127
154 1 32.441 1.83241 6.66322 2.72184 0.501292 -1.35444 -0.167161 0.647879 0.500219
155 1 23.7018 9.50374 17.1987 1.65178 -1.62363 3.23841 0.293183 -0.238685 -0.165474
156 2 29.8706 42.9713 50.1945 0.0529784 -2.59892 0.170802 -0.761962 -0.279995 -0.197461
157 2 54.9927 -1.4503 12.175 2.96214 -0.488904 0.338102 -0.382268 -0.0705402 0.160207
158 2 10.9443 43.7718 55.5856 -2.13976 -0.661925 0.482629 0.178992 0.0330016 -0.0330035
159 2 19.6898 23.9443 45.7872 -0.248027 -1.6416 -2.12781 -0.333623 -0.342795 -0.35379
160 2 40.735 34.7631 17.5276 -0.428239 1.04766 -1.14809 -0.0309161 0.441833 0.157688
161 2 38.1916 8.37952 38.0602 -0.098751 -0.780441 -1.74167 0.178119 -0.0322549 0.00659265
162 1 18.5635 25.6899 16.6982 1.43125 1.1497 0.539452 0.0697427 -0.117724 0.0605642
163 2 16.3159 49.9887 56.215 0.894824 0.483806 1.34171 0.349071 0.164205 -0.365788
164 2 49.7681 6.68973 6.38569 0.0143949 -3.04125 0.013472 -0.306792 -0.493001 -0.0243352
165 1 49.1802 27.1371 5.80426 0.139133 2.27038 0.178251 0.32531 0.604674 -0.0821608
166 1 42.9211 11.2345 45.1045 0.580493 2.81746 -2.08043 0.295255 0.178992 -0.697055
167 1 55.4428 35.7966 5.44873 -0.128554 -0.864125 -4.92579 0.407715 -0.14162 -0.314089
168 2 26.3512 2.29994 46.4016 2.52126 0.591849 -0.902875 0.135576 -0.729251 9.66732e-04
169 1 17.6581 25.1227 26.731 -1.46324 -3.41809 -2.22614 -0.366436 0.205347 -0.0288362
170 2 28.996 27.0554 17.5012 3.13873 -0.467077 1.05831 -0.0187027 -0.607909 -0.619819
171 1 23.2255 27.5235 32.6222 -1.59209 -1.52321 -0.197002 0.0564834 0.111849 -0.132227
172 2 1.01368 37.5404 0.138816 1.29524 -0.960828 3.75506 -0.46231 -0.206238 0.149035
173 2 54.3905 0.492539 14.6071 2.21237 1.46017 -0.976381 -0.279028 -0.22638 -0.478249
174 1 14.8884 18.178 33.7036 1.67179 -0.343454 -2.25623 -0.263574 -0.303265 -0.0519307
175 1 55.233 13.048 4.1109 0.443928 -1.66609 0.321747 0.59163 -0.167482 0.157087
176 1 31.8823 53.0622 24.6729 0.180852 -2.3911 -0.502857 -0.111025 -0.193192 0.174066
177 1 10.0353 8.79892 15.4338 1.04982 0.58134 -0.33374 0.715237 -0.524573 -0.0452197
178 2 35.8294 0.370491 -0.391154 -4.46418 0.829823 -0.972883 -0.35082 -0.256822 -0.040198
179 1 7.58947 2.60187 49.4574 1.86228 -1.21797 -0.439108 0.0862526 0.475737 0.218758
180 2 29.5251 52.7469 8.50901 -0.321031 1.27154 -2.36243 0.355501 -0.507193 -0.253496
181 1 22.9335 8.83868 22.6611 2.11738 -1.97109 0.613405 -0.27038 -0.618521 0.37648
182 1 52.2385 43.4867 30.1732 -2.32559 1.99184 -1.58266 -0.402042 0.149564 0.154849
183 2 47.4017 10.8209 21.8088 1.15301 0.206898 -1.39805 0.423186 -0.398457 -0.788568
184 1 19.025 44.7057 24.4439 -2.06877 -0.455628 -2.17004 -0.0299095 0.0773946 0.345554
185 1 30.0188 4.56372 45.2263 3.82204 1.73819 -2.19997 -0.11826 0.0669304 -0.44275
186 1 56.4971 4.82208 31.6081 1.34668 0.806775 1.64121 0.0483336 -0.102405 -0.29494
187 1 44.4125 25.7445 3.81397 -0.878216 -0.46776 3.48045 -0.864281 0.0888682 0.124599
188 2 23.9117 46.0421 2.6493 -0.828943 0.128788 3.21913 -0.0895788 -0.0482596 -0.257141
189 2 -1.56539 52.091 11.5791 0.892154 -1.08876 0.458577 0.64278 0.225894 -0.407146
190 1 17.5465 42.7511 46.4544 -1.30405 1.43144 -4.31688 0.208356 -0.405942 -0.00185997
191 2 50.8856 42.9687 32.3832 0.134456 -0.780706 0.0157729 0.185285 -0.266764 -0.553279
192 2 20.4524 47.0234 38.6227 -0.841654 3.82531 -0.446102 0.458032 0.227991 -0.441786
193 1 0.906391 26.2485 49.576 0.702973 -2.61782 0.446909 0.552977 0.367975 -0.160866
194 1 13.4528 23.2802 26.2152 0.201689 0.00488355 0.247906 0.508641 -0.572793 -0.192595
195 2 14.3092 -1.46026 -0.685918 -0.508502 -0.527774 -3.81214 -0.172416 0.282541 0.698565
196 2 45.1339 4.66586 11.6838 -0.619915 -1.19382 -0.918083 0.313031 0.176384 0.515959
197 1 24.5029 9.93603 39.1594 0.0668845 0.596677 4.06118 0.282574 -0.133448 -0.254317
198 2 8.81104 17.4552 5.25973 0.0675459 1.69814 0.683024 -0.478518 -0.282584 -0.0795179
199 2 0.101808 16.2499 31.356 1.03097 -0.313081 -0.322303 0.221692 -0.1136 0.680948
200 2 41.8571 50.2516 28.1015 0.696661 -1.43762 -1.36417 0.901019 0.746279 0.103697
201 2 41.0888 37.4755 40.1427 2.22685 2.73682 3.01436 0.804074 0.180374 0.209544
202 2 20.3006 27.5564 3.13299 0.225266 1.00606 1.97979 0.226379 -0.339965 -0.22828
203 1 21.9738 9.20562 5.73668 0.945856 -3.11262 1.62559 -0.404702 0.155777 0.374338
204 1 12.3111 44.4754 6.38961 1.27675 -1.41675 0.756039 0.216037 0.0652074 -0.123226
205 1 45.6199 30.8584 3.46767 -0.711875 -0.910601 -1.27392 -0.114385 -0.292531 0.527783
206 1 52.9028 45.1508 25.6618 -1.53533 -2.15705 2.68328 0.686504 -0.50742 0.0152906
207 1 21.4969 53.295 13.0437 0.556021 2.1625 -1.40134 -0.156146 0.00218296 0.606128
208 1 23.7139 41.0278 -0.229078 -4.24469 -1.22177 -0.485267 0.195124 0.401616 0.19775
209 2 36.0314 47.9783 17.9696 -0.984915 -1.49491 -1.38063 0.343356 -0.510329 -0.311463
210 2 34.3926 5.70415 40.724 1.27803 0.672877 -0.229171 -0.67176 0.229536 0.937614
211 2 20.3368 1.58216 11.4431 -0.260347 -0.157522 0.795134 -0.6457 0.34804 0.144232
212 2 -0.444631 21.2985 27.2447 0.934232 1.18888 2.52392 -0.221119 0.69452 -0.244496
213 2 1.25704 45.8351 17.4642 0.568461 0.33216 -1.08083 -0.620056 0.437012 -0.237796
214 2 23.6413 25.4091 27.3671 0.317533 -0.886742 0.737733 -0.028903 -0.533296 -0.133376
215 1 12.4218 12.599 19.0172 -0.267295 1.81198 3.54472 -0.289975 -0.140587 -0.203682
216 1 2.42211 52.0546 43.5655 -0.0148468 2.59302 1.15544 0.391198 0.114315 -0.0511045
217 2 24.6897 2.68138 27.4147 1.40635 -0.182452 -0.0116581 0.0850768 0.0256966 0.486548
218 2 46.6953 42.18 14.5017 -0.271444 -0.110266 -1.77119 0.190496 0.0910653 0.338889
219 2 30.5821 0.0229731 7.95176 -3.3115 -0.0124986 0.731152 -0.31776 -0.335269 -0.472021
220 1 22.5365 18.0107 2.57164 0.192313 -2.97473 3.29832 -0.316952 0.128937 0.206009
221 1 23.8522 0.419199 14.3656 0.717349 0.405082 -1.04077 0.483811 -0.072578 0.0352368
222 1 50.972 26.7381 9.85535 2.79119 -2.01411 -0.780395 0.563637 0.317318 0.163786
223 1 19.8499 4.38341 -0.356061 -1.68693 0.23682 -2.39122 0.470063 0.19971 -0.0679224
224 1 55.6605 57.0189 5.8271 -2.03767 -1.42543 2.28582 -0.102927 -0.101681 -0.358963
225 2 32.2238 3.32352 49.5458 -0.872492 -0.238034 0.198777 0.507609 0.430767 -0.0883052
226 2 9.86455 2.72095 26.5488 -0.226469 1.61054 0.935394 0.111653 0.0997255 -0.104343
227 1 29.3422 17.6357 34.4522 -0.060793 -0.34457 1.1368 -0.170172 -0.599822 0.757112
228 1 37.4808 2.19238 54.3628 -1.0131 -1.58213 1.79484 -0.374878 0.132729 0.182914
229 1 54.6064 0.182992 26.633 0.211718 3.58074 1.02197 -0.601325 -0.135456 -0.19615
230 1 14.0366 1.77604 24.9146 -0.989649 -0.689345 1.06719 0.131279 0.63829 -0.0165899
231 2 55.6984 40.447 28.8518 -1.80678 0.0919434 -1.34968 -0.408066 -0.077381 -0.429188
232 2 36.8095 38.1538 15.4615 0.541486 -0.813482 -1.08717 -0.0777296 -0.120063 -0.119392
233 2 26.8483 30.1684 10.4882 0.00365215 1.53756 -1.19479 -0.200395 -0.167849 -0.378911
234 1 8.45758 17.1991 2.35201 3.38895 2.12864 0.607727 0.213105 0.527934 0.201569
235 1 19.2202 53.0729 2.66786 1.4808 -1.35826 2.06973 -0.155971 0.0274359 0.0270675
236 2 1.04439 11.8198 -0.904767 0.0187433 -1.82078 0.101114 -1.17922 -1.14102 0.648446
237 1 2.95163 18.3144 51.1736 -0.121471 -1.91007 -1.35794 -0.110962 0.434425 -0.259561
238 1 30.7979 48.2044 47.7934 0.592825 5.30054 -2.46207 0.784612 0.380035 -0.890955
239 2 -1.45494 19.2447 46.1539 2.78233 1.16472 1.8895 0.645001 -0.351134 0.0674183
240 2 28.5677 49.7601 8.54716 -2.25523 1.19928 -1.94244 0.0418809 0.069503 -0.178839
241 2 51.9083 6.58685 36.5666 -1.60261 2.71063 0.977317 0.307906 -0.250274 -0.679943
242 2 41.3063 56.7176 46.8882 0.279804 -0.111714 -0.534918 -0.407824 0.05074 0.029971
243 1 10.2392 55.768 41.2111 2.99536 -1.36504 2.78635 -0.49393 -0.317246 0.311266
244 1 37.9351 46.7613 30.7128 0.105557 0.35653 -0.610701 0.389801 -0.299593 -0.741255
245 1 16.5305 21.8318 12.3897 0.109915 0.345301 -1.56502 0.202382 0.524738 -0.484097
246 2 25.9855 53.637 20.2415 -2.82588 -1.94983 -0.29633 0.103298 -0.458092 -0.293202
247 1 47.4902 34.4583 39.0785 -0.52393 0.9435 2.5708 0.215409 -0.660193 -0.414415
248 1 14.2552 3.08471 1.31969 2.83935 -2.52934 -0.878785 0.178629 0.172291 0.401092
249 2 13.2089 14.1659 45.9746 -1.76549 1.92088 1.41971 0.0969429 -0.793687 -0.191524
250 2 1.7549 -0.15972 12.0027 -0.30919 3.36448 0.0944435 -0.193671 0.164697 0.236502
251 1 15.9803 55.7271 2.40115 0.517519 0.973367 -0.521234 0.744313 0.568114 0.523761
252 2 14.3126 16.5965 15.9353 -2.68333 -0.874164 -2.64171 -0.287239 -0.411243 0.119432
253 1 9.62039 23.6309 43.9523 0.761281 -1.58846 3.27572 0.226852 0.44979 -0.129638
254 1 0.422736 49.3692 5.11954 2.56942 1.1786 -1.26352 0.0371079 -0.627638 0.296636
255 2 19.4069 42.263 31.7451 0.921454 0.224623 -0.227852 -0.699576 -0.339404 0.295687
256 1 25.9072 54.9911 44.3244 4.3728 0.190379 -0.315226 -0.0342425 -0.108794 -0.315422
257 1 14.4449 34.9171 26.1486 2.35692 -2.24534 -0.379785 0.659436 -0.348464 0.301933
258 1 50.483 50.1441 17.2945 0.908081 -1.38283 2.98567 0.350003 -0.128213 0.172658
259 2 0.912017 0.317898 49.2783 2.07881 -1.7096 2.14799 0.0557969 -0.111131 0.417159
260 2 42.668 51.294 4.85747 -1.7584 2.29174 0.342831 0.0349815 -0.00547979 0.313546
261 2 28.3215 3.88487 33.6196 3.42888 -0.669694 -1.61162 -0.543183 -0.134816 0.564807
262 2 29.3982 16.5899 -1.35918 0.685716 -3.71622 2.5721 0.93251 -0.490119 0.0485304
263 1 25.8649 23.3945 19.5012 -0.273005 -0.0693543 1.42032 -0.305779 0.279281 -0.852735
264 1 47.5978 35.62 10.9841 2.43107 4.61788 -2.11508 0.151366 0.413253 0.340348
265 1 15.6501 47.0495 33.2718 -0.8941 -2.74062 -5.33158 0.615727 0.285621 0.422038
266 2 13.5375 4.33697 10.4931 0.580989 0.0349954 0.535299 0.398783 -0.00888479 -0.1781
267 2 9.63923 24.2605 40.9913 -1.31526 -1.18667 0.698321 0.12232 -0.0830917 -0.295769
268 1 12.7492 20.2273 29.7393 2.4593 2.27845 -2.69066 0.0035037 -0.540836 0.753127
269 2 4.75575 5.25234 57.1412 2.03398 2.0112 -1.0935 -0.220384 0.710296 -0.054985
270 2 54.4291 47.2546 40.1575 -0.448239 -2.62703 -2.77146 -0.577282 0.783732 0.277456
271 2 45.2718 18.8184 22.573 -3.06828 2.60386 -1.49634 0.275471 -0.0325326 0.274661
272 1 4.9887 34.1747 23.0306 -3.06135 -1.63533 0.969741 0.236767 -0.641243 -0.347035
273 1 24.5327 14.0986 56.6992 4.10162 1.16005 -2.29393 -0.028549 0.219153 -0.116538
274 1 48.6085 10.3964 38.5224 -0.882749 0.864184 -1.26325 0.433976 -0.330026 0.204117
275 1 20.9798 7.38719 46.1275 2.54728 -1.13586 1.30598 0.339966 -0.157435 -0.204247
276 1 8.17656 33.5834 35.8354 1.46378 -1.79096 0.108843 -0.390139 -0.452632 0.216841
277 2 8.04362 27.0028 37.0147 0.0667268 0.929062 0.4182 -0.11689 -0.044925 -0.441932
278 2 40.2459 12.2681 11.3093 2.43191 4.36882 -2.99638 0.045839 0.102424 -0.391313
279 1 23.6548 41.9071 7.95533 0.949814 -0.799507 -4.81507 -0.322697 0.0286821 0.259933
280 1 37.1999 47.4359 46.2658 -0.920065 0.701394 2.00504 0.00738103 -0.180161 -0.19988
281 2 50.6529 22.0909 5.41378 -1.06989 0.442817 0.808733 -0.236803 0.700196 0.385752
282 1 49.9377 6.48549 53.3953 0.377105 2.30554 1.55675 -0.436629 -0.217435 -0.557581
283 1 7.30721 1.95147 9.70995 -1.24818 0.686403 3.13809 0.0761661 0.0513619 0.285388
284 2 41.4478 32.2671 29.2223 2.57263 -2.11399 3.68059 0.442155 -0.24311 -0.221452
285 1 34.187 13.7371 38.7656 0.818058 1.54143 0.54173 0.241023 0.630432 -0.0372283
286 2 -0.0991526 45.9153 0.687721 -0.894683 -0.280024 -2.40461 -0.225071 -0.0713045 0.527215
287 1 27.1026 51.9116 53.4014 0.495667 -1.94834 -0.704341 -0.582741 0.17573 0.0551305
288 1 11.8879 23.9489 44.9513 -0.700835 0.392591 1.14013 0.315445 -0.108821 -0.0461704
289 1 -1.08478 14.4337 24.5005 -3.88275 0.943657 1.07355 0.528802 0.164248 -0.570601
290 2 9.90199 3.95439 45.3961 0.357994 -1.22574 -1.75663 -0.399163 -0.299903 -0.299665
291 2 15.6729 27.3793 52.683 0.860859 0.250459 1.1533 0.00371373 0.460051 -0.249811
292 1 13.5516 16.1842 48.0242 2.85194 0.329192 1.15741 -0.735158 -0.0743626 0.0455996
293 1 26.9349 52.4322 37.2721 -1.55684 1.54065 -3.51305 0.111082 0.404446 -0.450426
294 1 48.0984 26.1823 32.947 0.849019 0.356251 -4.87277 -0.499068 -0.396713 0.425905
295 2 48.1609 53.4769 15.9491 1.10038 -0.716358 -1.21666 -0.318435 0.463747 0.224438
296 1 49.5704 4.74414 26.9293 0.908404 -1.61077 -0.565528 0.148221 0.0924264 -0.131335
297 1 48.9014 55.1488 10.7496 -2.95216 -1.99556 -1.37905 -0.0766178 -0.386541 -0.0700932
298 1 33.5102 39.9784 43.6942 -4.11237 -3.13814 -0.318693 -0.621521 -0.416009 0.351194
299 1 24.5269 40.2899 19.975 -1.19926 -0.519242 -1.42138 0.455295 -0.279442 -0.332825
300 1 49.3343 39.0843 23.7324 -1.38278 0.335617 2.46077 0.25837 -0.0822305 -0.372256
301 1 24.1357 19.3837 40.9795 -3.79189 0.0888981 -0.0224995 0.587287 0.313971 -0.372329
302 2 36.5785 31.8778 36.2807 1.02571 -2.96915 0.236268 0.116328 -0.231112 -0.376583
303 1 11.7715 3.63738 36.1388 -0.764235 1.93503 -2.74168 0.509494 -0.24395 0.0412896
304 1 0.801781 43.1625 25.0349 -4.03542 -2.22144 1.18584 -0.0933294 0.167621 0.328698
305 1 4.60818 3.43806 -0.0236075 2.12208 -0.708564 -2.23757 0.115166 -0.404124 0.694968
306 1 1.81741 54.6211 51.9185 -1.07417 -1.75237 -4.60012 -0.026177 -0.428653 -0.505589
307 2 51.3853 16.1178 41.7878 2.15343 -0.023625 -4.12426 0.154196 -0.0969312 -0.0266283
308 1 9.10383 -0.272574 36.3932 -0.442027 2.5893 1.93627 0.700258 -0.151507 -0.0597873
309 1 1.49103 52.1574 15.028 -0.0735352 4.01824 -0.330517 -0.250742 0.0930597 0.280658
310 1 45.3953 47.0456 24.4664 -1.97537 -3.33843 -0.736849 -0.346391 0.136115 0.03381
311 2 18.8193 21.9351 48.1522 -0.0747146 0.327229 -2.84203 -0.253308 0.0572913 -0.197233
312 2 6.78341 40.6629 5.94852 -0.904549 -1.07652 -0.0180679 0.0471242 0.194608 -0.0362473
313 1 55.2521 17.5224 7.39522 0.612574 -0.642621 -1.15576 -0.185359 -0.066343 0.227077
314 1 56.0827 24.8863 47.688 2.88375 2.28461 0.375733 -0.3914 -0.0837527 -0.0103704
315 2 32.553 25.5155 48.8009 -2.40171 0.649906 -1.85018 0.211277 0.530475 0.293284
316 1 45.4777 32.1603 35.6563 0.833878 -0.8641 -0.642563 0.455275 -0.182343 0.200189
317 1 16.0716 41.5534 50.4059 2.40667 -3.83137 0.747719 0.249874 -0.162584 -0.0390314
318 1 42.1305 -0.00980267 2.83988 1.27625 1.57731 1.0058 -0.405204 -0.00542134 -0.439333
319 2 44.7226 56.0592 32.5239 -1.8796 -1.22751 0.259261 0.502883 0.491808 0.013661
320 1 53.4732 35.545 36.8573 8.83361 2.49005 -0.0233416 0.0466256 0.598053 -0.582287
321 2 12.8641 22.6031 6.61743 -2.19423 1.68719 -1.41321 -0.386774 -0.30917 -0.487628
322 1 16.8754 37.3938 5.71619 2.28714 0.589543 1.12369 0.162714 0.313424 -0.194233
323 1 44.0129 7.88618 42.5401 -1.12157 1.58928 -0.884697 0.431367 0.125853 0.328398
324 1 51.8776 38.092 31.6021 2.86728 0.575606 -0.675896 -0.104852 0.309203 0.302189
325 1 14.7084 16.8705 50.0974 -1.26633 1.62155 -2.67348 0.269792 0.454233 0.164692
326 2 39.7006 0.580527 4.09862 -0.221513 0.4602 -3.47195 0.187393 0.36112 0.435874
327 2 21.2661 -1.32365 38.8512 -1.21666 1.66226 0.328732 -0.165145 -0.00866286 0.324293
328 2 28.062 51.5818 31.7125 0.663543 1.68191 -0.946743 0.159099 0.172513 0.409945
329 1 56.7849 8.84042 9.27834 3.16115 -3.83544 -2.59358 -0.00740525 0.217021 0.493905
330 2 40.9916 20.9617 30.1621 0.135827 0.338075 0.0511132 -0.568856 -0.589261 -0.44528
331 1 11.4373 51.6394 3.23268 0.563165 -2.08241 -0.51837 -0.461869 -0.14938 0.519847
332 2 28.7051 18.5312 30.0216 2.25409 -0.291267 1.0245 0.272826 -0.290666 -0.212537
333 2 15.9485 52.7324 47.6506 1.97395 1.62519 -1.75135 -0.254532 -0.336171 0.0226307
334 2 45.0006 51.3148 50.8159 2.12321 1.90401 0.0884583 0.457784 0.105909 -0.0298634
335 2 8.8024 29.264 4.51067 -0.187334 1.17942 1.12661 0.503862 0.372187 0.502647
336 1 5.36596 50.5464 5.48196 0.78639 -0.284807 2.93645 0.0763093 -0.378512 -0.0215007
337 2 48.6177 29.7639 43.176 -2.21128 1.39178 -1.51573 0.31242 -0.146365 0.0720378
338 2 30.4104 12.4217 23.1693 0.442845 -4.12527 -0.154948 0.305322 0.272064 0.0539626
339 2 4.61395 21.6275 56.1811 0.95591 -0.368805 0.326955 -0.278059 0.0990657 0.312212
340 1 23.0299 0.389012 53.856 2.03744 1.0793 1.13391 -0.0537532 -0.0855673 0.0877703
341 1 43.916 15.2495 38.2985 -0.688242 -2.20472 -2.18176 -0.178703 0.666327 -0.237836
342 2 0.42919 5.27061 25.787 0.749604 -0.902446 1.44259 0.104991 0.115282 0.208777
343 1 18.9652 44.2865 13.0389 2.05711 0.890796 -2.03932 -0.501639 0.101039 -0.0923209
344 2 29.2617 29.6309 12.8449 -1.12053 -0.062748 2.05744 0.295872 -0.166492 -0.747595
345 2 4.24175 34.36 17.9904 -1.98818 -0.903374 1.20902 -0.0492671 0.287706 -0.0869676
346 1 52.6777 34.2908 34.4516 2.05649 2.94332 1.30219 -0.613724 0.434184 0.156426