ITEM: TIMESTEP
22350002
ITEM: NUMBER OF ATOMS
11664
ITEM: BOX BOUNDS pp pp pp
-1.57487 57.3749
-1.57487 57.3749
-1.57487 57.3749
ITEM: ATOMS id type x y z vx vy vz fx fy fz
1 1 28.139 33.5406 0.673936 -0.579885 -2.92633 -0.145638 0.635986 -0.127998 -0.0888014
2 2 30.043 5.63742 31.4233 -1.25472 0.166336 -1.59048 -0.268339 -0.491007 -0.067786
3 2 30.6122 53.7903 15.9029 -0.061708 0.257496 -1.47976 -0.48938 -0.496439 -0.434829
4 1 40.1791 10.3979 8.78652 -2.67243 0.86345 -1.00781 -0.127263 -0.0970186 -0.228072
5 2 46.0168 55.7463 56.7078 0.701482 0.824472 1.57504 0.411708 -0.262829 0.124412
6 2 37.6839 28.637 15.9196 -0.802556 -0.41334 -0.0187912 -0.139645 0.820675 -0.0406635
7 2 49.3369 10.8012 30.9883 0.90404 -5.12051 -0.253012 0.208799 -0.211399 -0.617998
8 1 -0.244985 0.191047 19.1745 0.90508 -0.764186 4.05945 -0.269111 -0.682775 -0.223899
9 2 10.4508 14.5391 5.45412 -0.0605923 -2.46508 -1.62458 0.0596996 -0.429629 -0.109705
10 2 30.4034 54.0423 32.4174 0.315843 -0.703677 2.26992 -0.484129 -0.342947 -0.0220618
11 1 6.3875 30.6745 46.8988 2.56731 -3.1593 0.151029 0.678817 0.775504 -0.502865
12 1 46.7274 25.0879 40.4626 1.94639 -0.614574 2.02589 0.234137 0.101925 -0.0535951
13 2 50.5136 45.4995 13.4574 -1.68884 0.180849 1.136 -0.779117 -0.026675 -0.173565
14 1 55.737 27.541 53.5204 -2.00627 -0.841317 -1.72424 0.161818 0.0839687 -0.263438
15 1 -0.408091 43.4977 36.9851 2.41711 -3.78175 2.29168 0.642015 -0.299123 0.374021
16 2 29.5696 43.3064 26.9367 -0.30599 -0.872178 -2.14738 0.126391 -0.00958342 0.104194
17 2 54.2502 39.677 24.6116 -4.40503 3.45585 -1.65164 -0.248729 0.115991 -0.0488346
18 1 8.4309 1.47155 47.2225 -1.75988 3.10574 0.433665 0.0885793 -0.734172 -0.0170545
19 1 44.4393 17.6685 41.9288 -3.59603 -0.542633 -0.294507 -0.151574 -0.216109 -0.268085
20 2 29.3845 15.3487 46.2842 0.390495 0.30316 -1.88846 0.274415 0.0191031 0.180682
21 2 16.2484 24.4059 5.05296 -0.645251 1.11322 2.04533 -0.317794 0.54967 -0.705157
22 2 12.2455 19.8158 10.9424 -1.23207 -0.168432 0.693787 0.0723127 -0.0584979 0.181976
23 2 10.4337 12.5287 56.3375 0.915607 -1.81843 1.11047 0.369444 0.175051 -0.0616444
24 1 10.3842 30.7552 45.7668 -2.16989 2.86185 0.109723 -0.195165 -0.572588 -0.190051
25 2 52.2632 41.0964 -1.29289 -0.166907 1.40615 0.904857 0.178858 0.282344 -0.122449
26 2 12.9194 9.40493 46.3942 0.981011 0.197562 1.16685 -0.352705 0.175533 -0.246719
27 1 13.0901 2.99325 8.30627 0.410257 0.0577017 0.357369 0.784138 0.367718 -0.50233
28 1 28.9764 51.3135 15.7068 -0.741317 -0.235053 1.54327 0.970607 0.278903 0.415988
29 2 27.0007 38.5019 2.6732 0.394625 0.234803 -0.295156 0.0375353 0.48549 0.706785
30 1 32.8248 31.0346 17.3273 -2.48847 -2.75847 -0.385662 0.732444 -0.264404 -0.229481
31 1 49.4302 32.371 32.0417 -1.10804 2.44171 0.188796 0.0397159 -0.78806 0.311907
32 1 38.6634 11.0502 38.6522 -2.61209 1.54499 0.241289 0.0749737 -0.609973 0.146001
33 2 25.3418 3.35931 12.2576 -1.8471 0.745504 -0.206638 0.538503 -0.309083 0.248153
34 1 6.43059 30.7178 39.5535 1.57931 -1.99131 -0.00686745 0.159145 -0.00297951 -0.187688
35 1 33.4584 30.8831 54.6599 -1.43103 1.71831 0.587889 -0.866225 0.0667771 -0.378475
36 1 21.9262 8.01531 55.946 -2.04222 0.60298 2.57057 0.0692698 -0.227875 -0.115381
37 1 4.57451 57.3177 28.5639 0.960774 1.24611 -0.982164 0.0472708 -0.112869 -0.074877
38 1 35.237 53.1948 13.3268 -0.350505 -2.54495 0.0975755 -0.940058 -0.17881 -0.173562
39 2 0.67096 15.0149 -0.721981 2.19393 -1.128 0.563719 -0.0746213 0.108144 -0.0620037
40 2 34.1349 44.0486 -1.03101 -0.515799 -0.829149 0.115851 -0.592813 0.642495 -0.53189
41 1 41.7212 15.2066 29.0405 -1.48709 1.88953 0.566669 0.397671 0.219668 -0.333738
42 1 8.54482 53.8244 20.3354 0.0475168 1.12863 0.496687 0.170019 0.0324158 0.00239653
43 1 10.3272 39.3356 14.997 3.11002 -0.0384196 0.870842 0.338954 -0.315896 0.161069
44 1 39.7351 30.5921 15.6468 2.2613 -0.431251 0.511794 -0.525158 0.0351031 -0.283146
45 2 1.03967 35.4523 7.36537 -0.519252 0.5785 0.294305 0.51216 -0.0105206 0.516217
46 2 3.83782 30.3718 27.8724 1.85123 1.17714 -2.21409 0.276489 0.00998265 -0.425678
47 2 4.94496 25.5033 12.9938 -0.463656 1.27387 -0.155335 -0.0337368 0.0415403 0.553426
48 2 56.8044 50.0763 51.9174 1.1719 -0.977369 -2.23238 0.249414 -0.593085 0.138115
49 1 23.6767 6.95524 0.186318 0.346833 -2.74935 -1.32775 0.103775 0.0533756 -0.86885
50 2 23.5765 51.0059 17.1904 -1.63988 -0.0869918 1.10375 0.0855551 -0.663336 0.239917
51 1 11.8049 20.13 42.8029 -3.94717 3.3554 -1.74061 -0.460732 0.511548 -0.446853
52 2 10.2728 24.4497 24.4522 -1.10797 0.928659 -0.597078 -0.468141 0.0628068 0.158827
53 1 46.6717 31.6597 41.4022 -0.74569 0.597771 0.658263 0.354354 -0.523375 -0.216319
54 1 13.3956 3.40915 49.559 0.965645 -0.165327 1.89018 0.142618 -0.457142 0.146281
55 1 19.8575 5.60349 5.66683 -1.51165 2.68561 1.3546 0.794169 0.527064 0.0198491
56 1 36.2175 11.1206 9.17916 3.69089 1.25738 0.737454 -0.226707 0.315435 0.635532
57 2 3.77757 55.2229 41.5878 -1.91131 0.0450902 -2.29743 0.467995 0.199518 -0.0307508
58 2 44.1436 36.8155 29.9424 1.51296 -2.03222 -0.257317 -0.273906 -0.440676 -0.733058
59 1 6.51842 2.17558 23.3919 -0.921334 -1.72254 0.330711 0.364277 -1.01245 -0.329255
60 2 29.4601 40.024 27.7473 2.28366 -1.10793 -1.7532 -0.121557 0.223913 0.044259
61 2 27.6494 45.0772 29.1325 -2.9649 -1.11947 -1.58214 -0.24159 -0.407257 -0.0581962
62 1 12.832 11.7105 8.18146 -0.310172 0.273959 1.23885 0.529677 0.201279 -0.614463
63 2 7.29832 24.8131 15.0045 -0.270958 -2.72978 1.0006 -0.354837 0.810228 0.129989
64 1 26.9852 0.619077 4.33907 -2.38625 0.0190568 -0.356622 -0.398728 0.0102522 0.101005
65 2 55.7628 0.3102 53.9514 -1.60618 -3.23529 3.33453 -0.60259 0.00790956 0.110975
66 1 4.35094 6.38472 8.27889 -1.37502 0.427403 -2.75659 -0.295781 0.772339 -0.129134
67 2 23.3969 1.12665 11.6882 -0.714878 0.265118 -1.44317 -0.0108133 0.630435 0.288263
68 1 48.5269 45.0922 38.1061 2.99734 -1.64829 2.81512 -0.27911 -0.698858 0.199016
69 2 24.2494 18.3258 48.6575 -0.048695 -0.0136213 -0.133909 0.0655629 -0.308291 -0.0598166
70 2 6.92175 32.595 55.3383 -0.495194 2.96731 1.29419 -0.269612 -0.554131 0.593527
71 2 41.8783 22.7297 49.1937 1.62088 -1.70167 -2.03418 0.0600581 0.0252136 -0.273339
72 2 6.77084 0.163146 49.5961 1.97361 -1.78664 1.47946 -0.0940298 -1.0854 -0.55057
73 1 48.5425 37.5177 19.4222 0.632093 -0.294388 -2.15942 1.2633 0.634834 0.563371
74 1 25.2357 3.77623 24.6629 1.4963 -1.32028 0.426622 -0.00170231 -0.138805 -0.518907
75 1 53.688 0.724338 23.6536 -0.720375 0.0850959 2.57269 0.754449 -0.232123 0.172093
76 1 55.841 6.52792 42.116 2.43992 -0.312806 -1.10685 -0.383626 -0.20505 0.197714
77 2 52.5191 56.3645 13.9314 0.0036935 2.06926 -1.47145 0.0454501 0.284966 -0.350529
78 2 3.4896 48.4003 27.3268 0.0106515 -0.657266 -0.529691 0.0553802 0.679553 0.103217
79 2 25.1808 -1.42264 44.3005 1.37976 2.20939 0.466073 -0.168425 -0.106687 -0.260213
80 2 21.8295 3.01478 5.23625 -1.2424 1.32265 -1.65097 -0.789924 -0.158802 0.448157
81 2 30.3236 21.9564 17.3481 0.391215 -1.14693 -0.951762 -0.423631 0.469208 0.0625428
82 2 36.3369 21.7586 47.1423 1.3959 -0.578413 -2.06203 0.103774 -0.488633 -0.577115
83 1 50.4407 19.8849 4.20833 -2.56107 0.198724 2.80401 0.0112249 -0.725925 -0.0291631
84 1 43.2394 35.2567 47.8077 -0.154356 -1.17121 -0.412529 -0.241762 0.168796 -0.36193
85 2 7.65334 20.5635 52.0099 0.743309 -0.499362 -3.26448 -0.0237048 0.86693 -0.433834
86 1 43.4468 44.43 43.1946 3.59952 4.98666 -3.63218 0.31082 0.638949 -0.417718
87 1 42.7679 24.6473 47.2923 0.302358 -0.218639 1.81768 -0.124082 -0.463735 0.23435
88 1 46.1356 29.2979 42.2114 1.95606 2.97566 -0.956119 -0.0268121 -0.542994 0.243262
89 2 44.5541 41.7687 43.5768 0.400343 2.27936 1.29822 -0.091493 -0.387299 -0.0432414
90 2 27.1448 23.3515 -0.97799 2.23514 0.0550805 -0.13097 0.177884 0.271182 0.266879
91 2 12.3704 52.1373 46.4611 -1.30213 1.20952 -0.0887383 0.170736 0.0663187 0.219691
92 2 19.4764 3.19251 24.9543 -2.4825 -0.336726 0.22521 -0.00197511 -0.00921068 -0.696487
93 2 25.9094 34.9759 21.1493 -2.13104 1.11256 -0.58888 -0.220005 -0.158777 -0.502507
94 1 34.0159 53.9606 7.94177 1.61067 -1.9677 1.06402 -0.19975 -0.451795 0.272644
95 2 36.9297 29.2526 56.2018 -0.455947 -3.06498 0.657124 -0.607115 0.0685823 -0.213845
96 1 22.147 9.79454 10.0592 0.509867 1.39761 -0.508856 -0.173631 0.0157827 -0.0959457
97 1 18.9666 30.7973 6.37142 3.08733 1.18427 -1.23611 -0.848106 0.0680059 -0.180029
98 1 7.50257 51.2507 26.2483 1.71195 1.67091 1.00968 0.197743 0.0959397 0.205679
99 2 7.74889 28.2377 16.1195 2.36951 0.0731156 -0.234751 0.559109 -0.07311 0.507507
100 2 7.22816 3.01216 30.4477 -1.82734 0.553159 0.190102 -0.0762411 0.448461 0.20681
101 1 3.68756 26.2296 57.1766 -3.60934 0.101023 -1.22061 0.296727 -0.472876 -0.0831174
102 1 15.4962 13.0367 39.9376 -0.918041 -0.799516 4.62947 -0.660941 -0.457267 0.427018
103 2 12.9722 2.37769 54.4391 -3.66546 1.50832 1.36592 -0.133068 -0.790886 0.129063
104 2 0.931028 28.6782 15.1714 0.899744 0.502571 -2.81028 0.701987 0.394674 -0.0818296
105 2 33.9862 32.5188 4.63128 -1.75261 3.10127 -1.41755 -0.184744 -0.377649 0.511809
106 2 21.3207 44.5736 0.867595 -3.46712 -1.85343 1.05958 -0.0891857 0.344412 0.380728
107 1 54.1044 12.1105 2.15686 2.46738 -1.03455 0.853317 0.678466 0.312952 0.554667
108 1 26.7207 51.8635 8.16823 -2.02165 -2.47898 2.8191 0.0605729 -1.23618 0.195538
109 2 28.9175 -1.47843 20.3248 -0.113418 2.56158 -0.562317 0.0815445 -0.1222 -0.0106894
110 2 20.2536 55.4136 31.2292 -2.50456 -1.00971 -1.16949 -0.205907 -0.881764 0.340774
111 1 21.901 9.59258 14.6669 -2.28334 1.90277 0.06506 -0.504091 -0.159201 0.451798
112 1 48.3481 55.4964 50.2023 1.50819 4.42966 0.0122109 -0.0852719 -0.682056 0.0663367
113 2 48.1422 29.4919 33.4659 0.925382 -0.237677 3.03088 -0.0125199 -0.554617 0.0658024
114 1 53.7398 47.3298 20.7055 -3.23088 -0.956586 -2.25968 -0.265863 -0.217983 -0.0136245
115 1 56.0446 56.4999 38.1478 -1.18562 1.361 -0.841148 0.432816 0.234527 0.312707
116 2 33.7042 42.9212 13.177 3.88772 0.427402 -0.546373 0.734915 -0.445888 -0.0078217
117 1 17.2411 55.5073 14.1175 2.51541 -1.75208 0.214104 0.573349 -0.558302 0.459344
118 2 4.26038 32.4266 20.6628 -0.176204 -3.39221 0.543694 -0.265003 -0.0124689 0.224998
119 1 38.5375 8.18293 49.9957 -1.3928 -3.30797 0.991961 -0.388971 0.0923049 -0.221999
120 2 33.5749 32.3637 35.9662 -1.74124 1.40823 -0.42496 -0.148932 0.207658 -0.280938
121 1 16.8255 36.3845 36.9036 0.896467 1.28403 -1.40587 -0.705539 0.33887 -0.257768
122 2 1.30086 17.7702 53.1432 1.43245 -1.35316 2.08886 -0.0572613 -0.366357 0.569587
123 2 11.4737 11.0142 16.6829 0.385227 -2.01825 0.135427 -0.105795 0.0715232 -0.24455
124 2 49.0255 54.5881 26.3844 0.608195 -0.0116135 1.14472 0.148013 0.23012 0.0573062
125 2 48.9218 10.453 10.8117 2.53019 -0.902195 -1.94488 0.00884774 -0.435242 0.346114
126 2 54.4446 13.0368 45.2269 -0.965789 2.45602 1.90231 -0.381325 -0.871645 0.362726
127 1 1.80035 50.2975 23.1082 -1.08216 -3.57407 -0.218962 -0.426393 0.155313 -0.539349
128 2 39.4534 49.3616 39.1801 -0.480955 -0.822314 0.661403 0.28851 -0.0298175 -0.629448
129 2 31.5388 19.1014 35.7177 -1.69052 3.79898 0.569173 -0.904285 0.588678 0.342361
130 1 13.5617 7.86152 41.4446 1.16705 1.94777 -1.51916 0.302896 0.0456283 0.291337
131 2 9.44842 35.9361 11.5595 -0.165317 -1.39505 1.20686 0.205915 0.588256 0.46709
132 2 22.1901 10.0598 -1.09885 -1.00321 -4.21125 -0.438458 -0.228982 0.011679 -0.294788
133 2 43.9483 39.9592 32.9506 0.217459 -1.25794 0.566633 -0.583388 0.321061 0.276053
134 1 47.263 38.0272 10.5579 -1.85196 1.74273 -0.278272 0.338528 -0.0601637 0.181748
135 1 4.14217 8.49351 34.9909 2.37152 0.0160788 -1.71195 0.416315 0.625048 -0.842189
136 2 56.1129 27.3567 46.6797 -0.867045 0.460434 -0.0736307 -0.271732 -0.0188749 0.112239
137 1 23.6681 5.70198 14.3971 1.11928 2.4571 -0.342688 -0.472413 0.125565 -0.162021
138 1 13.4717 29.9883 51.5802 1.12085 0.641584 -0.478657 -0.133297 0.166487 -0.140385
139 2 39.4747 57.2338 30.3767 -1.84717 0.347595 0.873642 0.029991 -0.0150433 -0.0665832
140 1 14.4567 5.65651 40.4033 -4.279 2.23983 3.65514 0.207015 0.143697 0.402301
141 1 47.1693 7.39619 23.6392 -0.701097 -0.859906 0.106937 0.301613 0.492509 0.143796
142 2 23.7502 31.2208 53.6069 0.91754 -0.873543 2.5434 -0.0633389 0.375758 0.0755285
143 2 4.08892 9.08985 10.1654 0.848977 2.22965 2.50558 -0.169728 -0.0875843 0.0570367
144 2 22.1878 19.4776 53.6858 -0.500318 1.76843 2.22816 -0.589846 0.30645 1.1158
145 1 55.1984 42.7631 49.466 2.06665 -0.145356 0.88921 -0.640532 -0.0997053 -0.0389243
146 1 50.2766 34.2218 8.89887 -1.01083 1.74252 -2.30345 -0.334639 0.235088 0.043738
147 2 20.1025 52.6307 9.76689 -2.45599 -0.0249465 1.36468 -0.196301 0.587961 0.182309
148 2 47.3248 34.9236 45.2825 0.199144 0.808515 -0.145181 0.412978 0.217197 0.447446
149 1 13.0622 14.3949 33.4202 2.195 0.0681019 3.13153 -0.326149 0.453689 -0.769359
150 2 23.0692 57.2925 41.4406 0.639517 -0.0826175 -1.22949 -0.140307 0.995021 0.570529
151 2 12.6023 18.7691 49.0311 0.886442 2.29914 2.41104 0.367996 0.217249 -0.0795399
152 2 7.96924 22.0883 24.7648 0.0744943 -2.72692 1.67466 0.583451 0.393504 -0.6546
153 2 49.0113 29.6026 26.0312 -3.14192 -3.01773 2.78283 -0.510564 -0.0588028 -0.122064
154 1 32.4128 1.83248 6.68057 2.84859 -0.459961 -2.06082 -0.00500761 0.602328 0.427192
155 1 23.6876 9.51817 17.1654 1.18022 -1.22103 3.3947 0.319636 -0.282543 -0.0491969
156 2 29.866 42.9955 50.1916 0.871292 -2.23838 0.350771 -0.774547 -0.388433 -0.138682
157 2 54.9612 -1.4457 12.1726 3.25964 -0.367596 0.148071 -0.185431 -0.156647 0.194182
158 2 10.9667 43.7785 55.5805 -2.30192 -0.702993 0.501137 0.13563 0.0461135 -0.00625437
159 2 19.6907 23.9588 45.8065 0.0884989 -1.2382 -1.76945 -0.302508 -0.411268 -0.311841
160 2 40.739 34.7549 17.5398 -0.388565 0.58682 -1.23178 -0.0462993 0.421597 0.00642294
161 2 38.1934 8.38722 38.0772 -0.289979 -0.717208 -1.65484 0.183692 -0.0889333 -0.16329
162 1 18.55 25.6776 16.6936 1.25807 1.30337 0.375706 0.153819 -0.0858112 0.152753
163 2 16.3088 49.9846 56.1995 0.57247 0.290348 1.6783 0.249082 0.202466 -0.272074
164 2 49.7661 6.7176 6.38571 0.334319 -2.49041 0.00437643 -0.295914 -0.529927 0.0457364
165 1 49.1813 27.1194 5.80213 -0.399778 1.24557 0.272225 0.38137 0.734454 -0.0402847
166 1 42.9175 11.2078 45.1199 0.112013 2.53451 -1.01173 0.317628 0.184326 -0.692888
167 1 55.447 35.8037 5.49502 -0.751368 -0.52221 -4.21517 0.401767 -0.305885 -0.603479
168 2 26.3271 2.29062 46.4104 2.28384 1.28388 -0.880606 0.305736 -0.569038 -0.0316101
169 1 17.6697 25.1583 26.7528 -0.793794 -3.65973 -2.11306 -0.506165 0.11841 -0.113767
170 2 28.9648 27.0567 17.4875 3.05553 0.219753 1.6925 0.17767 -0.6845 -0.578081
171 1 23.2418 27.5396 32.6232 -1.64501 -1.71365 -0.0157676 0.0172644 0.143596 -0.104359
172 2 0.998528 37.5489 0.102595 1.77553 -0.739345 3.50182 -0.446381 -0.207014 0.313605
173 2 54.3669 0.476937 14.6144 2.44366 1.70831 -0.477106 -0.165999 -0.247801 -0.45566
174 1 14.87 18.1794 33.7255 2.02089 0.0553362 -2.10626 -0.197093 -0.218669 -0.141628
175 1 55.2329 13.0634 4.10871 -0.463823 -1.36135 0.195538 0.596556 -0.227506 0.0134277
176 1 31.8796 53.0842 24.6794 0.348618 -2.01383 -0.820958 -0.112354 -0.293586 0.245897
177 1 10.0308 8.78947 15.4368 -0.144862 1.31661 -0.237254 0.845773 -0.436694 -0.0822132
178 2 35.8717 0.361266 -0.381572 -3.94208 1.03557 -0.880431 -0.620743 -0.131021 -0.128541
179 1 7.5719 2.61792 49.4632 1.65868 -1.94959 -0.750169 0.176406 0.475061 0.189761
180 2 29.5304 52.7314 8.53127 -0.749126 1.77256 -2.03985 0.449739 -0.43801 -0.343995
181 1 22.9109 8.85325 22.6579 2.33724 -0.850753 0.0156381 -0.0275744 -0.836894 0.397613
182 1 52.2583 43.4682 30.1898 -1.65991 1.65446 -1.70303 -0.464027 0.286139 0.00642847
183 2 47.3923 10.8169 21.8186 0.6891 0.610954 -0.568085 0.442371 -0.358006 -0.765533
184 1 19.0453 44.7108 24.4679 -1.94814 -0.598635 -2.60086 -0.126829 0.113201 0.220768
185 1 29.9799 4.54716 45.2446 3.92821 1.59689 -1.46796 -0.0260037 0.113449 -0.510925
186 1 56.484 4.81342 31.5895 1.2021 0.96202 2.0755 0.141522 -0.10091 -0.277663
187 1 44.4147 25.7495 3.78084 0.399395 -0.474268 3.12701 -0.81048 -0.079612 0.32756
188 2 23.9194 46.0404 2.61613 -0.693045 0.175678 3.43464 -0.163759 -0.0391426 -0.158737
189 2 -1.57053 52.1027 11.5726 0.171282 -1.27781 0.841189 0.705633 0.13215 -0.315125
190 1 17.561 42.7334 46.497 -1.54256 2.08108 -4.21224 0.11054 -0.445731 -0.126598
191 2 50.8849 42.9748 32.3801 -0.0106135 -0.467136 0.606694 0.0911501 -0.319173 -0.557006
192 2 20.4628 46.9867 38.625 -1.1535 3.43644 -0.0479667 0.115607 0.503611 -0.306957
193 1 0.903728 26.2768 49.5701 -0.11984 -2.95713 0.718125 0.528641 0.0892127 -0.189788
194 1 13.4546 23.276 26.2114 -0.51916 0.827726 0.502838 0.440764 -0.510853 -0.147961
195 2 14.3134 -1.45348 -0.644248 -0.291493 -0.753277 -4.43081 -0.236239 0.139575 0.472323
196 2 45.1412 4.6787 11.6955 -0.840362 -1.31305 -1.35124 0.108621 0.0580178 0.296139
197 1 24.5042 9.92917 39.1174 -0.299783 0.805599 4.26632 0.197275 -0.139307 -0.0217028
198 2 8.80796 17.4371 5.25274 0.574844 1.91397 0.745037 -0.457194 -0.134294 -0.0466241
199 2 0.0929809 16.2524 31.3626 0.771219 -0.178881 -0.988848 0.264375 -0.137529 0.571813
200 2 41.8548 50.2696 28.1156 -0.256278 -2.18649 -1.43263 0.882319 0.672748 0.0287899
201 2 41.0707 37.4494 40.1138 1.36384 2.4486 2.69887 0.809689 0.352493 0.377603
202 2 20.2997 27.5444 3.11218 -0.0603259 1.4034 2.22267 0.306982 -0.40764 -0.231347
203 1 21.9614 9.23765 5.72354 1.53519 -3.21578 1.02974 -0.371405 -0.0113955 0.405531
204 1 12.3002 44.4899 6.38146 0.920796 -1.49998 0.890256 0.245689 0.0447209 -0.0519603
205 1 45.6261 30.8647 3.48407 -0.593055 -0.310565 -1.90166 -0.0421195 -0.495282 0.29349
206 1 52.9227 45.1679 25.6353 -2.4357 -1.22154 2.59255 0.501549 -0.714314 0.0937175
207 1 21.4902 53.2735 13.0622 0.764618 2.03727 -2.2294 -0.117263 0.151014 0.479524
208 1 23.7572 41.0422 -0.223289 -4.34493 -1.58277 -0.538285 -0.0543685 0.0705092 -0.124222
209 2 36.0429 47.9902 17.9819 -1.32717 -0.921104 -1.0697 0.301252 -0.552946 -0.272129
210 2 34.3764 5.69877 40.731 1.9443 0.445023 -1.17882 -0.581656 0.193866 0.844421
211 2 20.3361 1.58581 11.4362 0.398271 -0.530655 0.615135 -0.59594 0.357908 0.192099
212 2 -0.454907 21.2903 27.2183 1.16572 0.457228 2.71827 -0.216896 0.674243 -0.125835
213 2 1.24825 45.8338 17.4738 1.23418 -0.110232 -0.806347 -0.634502 0.394885 -0.274531
214 2 23.6382 25.415 27.3592 0.295984 -0.285309 0.816373 0.0685607 -0.590444 -0.0191469
215 1 12.4226 12.5801 18.9809 0.0813875 1.96881 3.67434 -0.166379 -0.0718881 0.0265494
216 1 2.42502 52.0295 43.5538 -0.471576 2.37242 1.10626 0.194705 0.169981 0.113518
217 2 24.6764 2.68356 27.4175 1.23048 -0.213075 -0.54524 0.243668 0.0332921 0.511184
218 2 46.6988 42.1815 14.5211 -0.44224 -0.20932 -2.04722 0.128834 0.0955436 0.184713
219 2 30.613 0.0215203 7.94228 -2.80917 0.351137 1.17899 -0.611089 -0.350742 -0.382976
220 1 22.5326 18.0411 2.54083 0.563633 -3.04247 2.86359 -0.166855 -0.0362007 0.352628
221 1 23.8488 0.414774 14.3763 -0.0450044 0.529364 -1.07273 0.508246 -0.0904834 0.0114331
222 1 50.9486 26.7605 9.86455 1.79721 -2.44555 -1.03341 0.724765 0.244486 0.171013
223 1 19.8702 4.38314 -0.332729 -2.34382 -0.187291 -2.19701 0.397737 0.355821 -0.183225
224 1 55.6797 57.0319 5.80213 -1.83734 -1.20315 2.69653 -0.154309 -0.190205 -0.185592
225 2 32.2353 3.32845 49.5433 -1.42619 -0.714163 0.25976 0.534145 0.465275 -0.0308018
226 2 9.86759 2.70554 26.539 -0.355566 1.51906 1.00704 0.131613 0.067125 -0.0397428
227 1 29.3416 17.6347 34.4467 0.193809 0.548732 -0.068849 -0.162701 -0.567997 0.817252
228 1 37.4879 2.20928 54.3461 -0.424914 -1.74033 1.49651 -0.396082 0.0784883 0.200448
229 1 54.5994 0.147079 26.6213 1.13046 3.57259 1.30562 -0.600764 0.132176 -0.178444
230 1 14.0473 1.78775 24.904 -1.09122 -1.57945 1.03771 0.00340672 0.52673 0.0484878
231 2 55.7139 40.4456 28.8627 -1.31956 0.168354 -0.815922 -0.500452 -0.0692447 -0.544874
232 2 36.8035 38.1612 15.4717 0.676745 -0.675355 -0.913925 -0.178801 -0.141285 -0.200048
233 2 26.8472 30.1522 10.4982 0.221161 1.68744 -0.76432 -0.207544 -0.118562 -0.427893
234 1 8.42608 17.1819 2.34769 2.87338 1.33134 0.295927 0.458966 0.51049 0.205172
235 1 19.2044 53.0863 2.64829 1.68866 -1.35919 1.80712 -0.121959 -0.0247362 0.31104
236 2 1.03846 11.8323 -0.902098 1.16397 -0.688913 -0.581342 -0.938943 -0.955586 0.615573
237 1 2.9524 18.3368 51.1848 -0.0168146 -2.54085 -0.917029 -0.0227935 0.395841 -0.312234
238 1 30.798 48.1546 47.8109 -0.62378 4.56235 -1.05217 0.808596 0.577905 -0.951725
239 2 -1.47892 19.2313 46.1354 2.04357 1.53288 1.77094 0.729407 -0.341869 0.142522
240 2 28.5904 49.7483 8.56553 -2.27162 1.13145 -1.67361 -0.0112044 0.0531076 -0.322441
241 2 51.9257 6.55888 36.5531 -1.90931 2.88501 1.69411 0.269438 -0.0832006 -0.669156
242 2 41.3011 56.7187 46.8935 0.742773 -0.142787 -0.546742 -0.461598 0.00463699 -0.0110287
243 1 10.2061 55.779 41.1857 3.59511 -0.89023 2.23479 -0.303923 -0.298809 0.40915
244 1 37.9372 46.7553 30.7133 -0.566975 0.806517 0.50993 0.485215 -0.293108 -0.719626
245 1 16.5309 21.8325 12.4017 -0.171916 -0.489651 -0.813471 0.164883 0.549575 -0.492175
246 2 26.014 53.6537 20.2429 -2.80714 -1.41205 0.0584221 -0.125649 -0.543977 -0.372323
247 1 47.4968 34.4445 39.0499 -0.825186 1.70077 3.08417 0.174665 -0.324187 -0.25613
248 1 14.2289 3.11093 1.33151 2.3866 -2.61193 -1.41489 0.405495 -0.0557947 0.299021
249 2 13.2271 14.1428 45.9594 -1.8254 2.70833 1.57416 0.0183982 -0.688493 -0.098984
250 2 1.75707 -0.191953 12.0031 -0.0701784 3.09504 -0.127258 -0.259852 0.331611 0.178047
251 1 15.9808 55.7217 2.41035 -0.58463 0.0330103 -1.25106 0.69124 0.661616 0.430535
252 2 14.3377 16.6031 15.9622 -2.26382 -0.411073 -2.69269 -0.494804 -0.459108 -0.0127856
253 1 9.61474 23.6502 43.9188 0.390318 -2.26337 3.38522 0.257713 0.43731 -0.0228093
254 1 0.398001 49.3527 5.13437 2.37012 2.06192 -1.63442 0.225711 -0.528259 0.188293
255 2 19.3942 42.2591 31.7489 1.62723 0.513837 -0.539329 -0.628706 -0.203208 0.289261
256 1 25.8635 54.9882 44.325 4.33842 0.344515 0.175353 0.0709654 -0.0883493 -0.326268
257 1 14.4268 34.9366 26.1547 1.26802 -1.64283 -0.84028 0.753534 -0.428463 0.297636
258 1 50.4765 50.1566 17.2662 0.338771 -1.12089 2.66307 0.393335 -0.213207 0.24191
259 2 0.892129 0.334613 49.2591 1.90094 -1.58635 1.6307 0.271344 -0.12044 0.546935
260 2 42.6857 51.271 4.8561 -1.79558 2.23912 -0.0543631 0.0386683 0.100353 0.428301
261 2 28.2848 3.89102 33.6384 3.86181 -0.520233 -2.13524 -0.287785 -0.144542 0.425354
262 2 29.3965 16.6237 -1.38391 -0.365637 -2.92116 2.365 1.05084 -0.998928 0.336746
263 1 25.8653 23.3972 19.4811 0.212334 -0.452734 2.56977 -0.322172 0.22608 -0.655608
264 1 47.5748 35.5774 11.0077 2.10204 3.82614 -2.54398 0.273481 0.61182 0.228804
265 1 15.6634 47.0787 33.3271 -1.70459 -3.12474 -5.60218 0.447769 0.225628 -0.0577818
266 2 13.5339 4.33675 10.4871 0.175432 0.051497 0.661681 0.360978 -0.0232445 -0.0600549
267 2 9.65307 24.2718 40.9827 -1.41193 -1.04213 0.994479 0.0635917 -0.186319 -0.265878
268 1 12.7251 20.2009 29.7716 2.3493 2.96269 -3.75528 0.13079 -0.355721 0.647422
269 2 4.73467 5.23642 57.1516 2.19093 1.18705 -1.04947 -0.0797332 0.830894 -0.0172911
270 2 54.4301 47.2844 40.1864 0.230102 -3.30462 -3.01707 -0.699976 0.499629 0.191163
271 2 45.3034 18.7925 22.5892 -3.23836 2.54324 -1.71241 0.0531171 0.141974 0.130905
272 1 5.02088 34.1859 23.0184 -3.28989 -0.614776 1.48568 0.067612 -0.688825 -0.334235
273 1 24.4919 14.0889 56.7209 4.03326 0.798891 -2.07572 0.108988 0.252637 -0.15799
274 1 48.6202 10.3855 38.5364 -1.44234 1.32154 -1.5277 0.302467 -0.27161 0.143693
275 1 20.9572 7.39739 46.1129 1.95074 -0.859254 1.57772 0.432255 -0.201838 -0.149634
276 1 8.15939 33.5976 35.8359 1.96862 -1.04884 -0.226825 -0.267533 -0.514413 0.219351
277 2 8.04251 26.9932 37.0082 0.1843 0.976355 0.86488 -0.101167 -0.0456694 -0.402007
278 2 40.2222 12.226 11.337 2.23753 3.99548 -2.49057 0.314018 0.582406 -0.556371
279 1 23.6431 41.9155 8.00494 1.36928 -0.933602 -4.99838 -0.23025 0.149713 -0.0171315
280 1 37.2087 47.4277 46.2445 -0.813911 0.876904 2.19494 -0.1457 -0.0454274 -0.056206
281 2 50.6619 22.0902 5.40797 -0.735057 -0.261199 0.386431 -0.393093 0.614274 0.396962
282 1 49.9306 6.46127 53.3755 1.00564 2.53922 2.31375 -0.383273 -0.0941738 -0.431013
283 1 7.32035 1.94533 9.68137 -1.33712 0.569112 2.55701 0.0430588 0.101722 0.468908
284 2 41.4246 32.2868 29.1845 2.03595 -1.83209 3.85678 0.56021 -0.279071 -0.126277
285 1 34.1808 13.7269 38.7597 0.378529 0.490263 0.630011 0.33174 0.741093 -0.0818194
286 2 -0.0912417 45.9175 0.714498 -0.635839 -0.174237 -2.87432 -0.256689 -0.130562 0.362645
287 1 27.0933 51.9317 53.4086 1.34556 -2.05529 -0.791054 -0.534344 -0.0346178 0.0631998
288 1 11.8972 23.9443 44.9395 -1.11259 0.511694 1.17408 0.228006 -0.0476078 0.00210592
289 1 -1.04226 14.426 24.4857 -4.50771 0.580574 1.8417 0.289565 0.311768 -0.431299
290 2 9.89633 3.96511 45.4115 0.811146 -0.866163 -1.31217 -0.447447 -0.368527 -0.519016
291 2 15.6645 27.3791 52.6701 0.834837 -0.211436 1.3603 0.0423313 0.407904 -0.139725
292 1 13.5178 16.1804 48.0132 3.89671 0.454822 0.968125 -0.635476 -0.0966663 0.194381
293 1 26.9513 52.4196 37.3035 -1.70841 0.932003 -2.77812 0.0928675 0.395705 -0.507074
294 1 48.0859 26.176 32.9984 1.60052 0.849756 -5.34955 -0.483837 -0.255792 0.219323
295 2 48.1483 53.4863 15.9624 1.35547 -1.20465 -1.42103 -0.163539 0.457717 0.166456
296 1 49.5626 4.76114 26.9337 0.579072 -1.75306 -0.297956 0.282717 0.101614 -0.219521
297 1 48.9297 55.1655 10.7629 -2.71286 -1.37571 -1.24487 -0.230326 -0.41914 -0.101276
298 1 33.5462 40.0061 43.7 -3.04784 -2.38675 -0.872913 -0.757339 -0.561426 0.371071
299 1 24.5421 40.2929 19.9866 -1.82308 -0.126321 -0.889484 0.363125 -0.235643 -0.360857
300 1 49.3495 39.0805 23.7052 -1.64808 0.376387 2.95245 0.099645 0.0296517 -0.274787
301 1 24.1779 19.3853 40.977 -4.61233 -0.423557 0.487512 0.499528 0.351836 -0.293959
302 2 36.5688 31.9059 36.2763 0.874072 -2.61935 0.626492 0.168538 -0.419644 -0.362254
303 1 11.7831 3.61655 36.1661 -1.51455 2.24983 -2.71139 0.477295 -0.173855 -0.0756735
304 1 0.841047 43.1855 25.0256 -3.70958 -2.36631 0.657851 -0.323815 0.0304504 0.359255
305 1 4.58835 3.4421 0.00443049 1.84564 -0.0449937 -3.33429 0.243718 -0.456959 0.733978
306 1 1.82834 54.634 51.9585 -1.09349 -0.747939 -3.23312 0.057908 -0.878171 -1.26672
307 2 51.3645 16.1175 41.8283 1.94321 0.124091 -3.95384 0.232063 -0.184528 -0.286134
308 1 9.11354 -0.299064 36.3735 -1.44332 2.71882 1.9646 0.609196 -0.0241725 0.0200427
309 1 1.49011 52.1183 15.0336 0.296785 3.69858 -0.775563 -0.235027 0.317592 0.305248
310 1 45.412 47.0792 24.4741 -1.36296 -3.35897 -0.794441 -0.453321 -0.099429 0.0407881
311 2 18.8188 21.9322 48.1792 0.177219 0.268033 -2.58224 -0.219743 0.0516017 -0.285324
312 2 6.79271 40.6746 5.94886 -0.901308 -1.28435 -0.0344839 -0.0511006 0.200124 0.0651345
313 1 55.2443 17.5281 7.40847 0.908361 -0.454094 -1.43765 -0.203356 -0.181632 0.146939
314 1 56.0511 24.863 47.6839 3.34137 2.36687 0.412717 -0.213158 -0.0310827 -0.0373214
315 2 32.5777 25.512 48.8204 -2.51008 0.0377122 -2.05966 -0.00733058 0.633586 0.105176
316 1 45.4727 32.1673 35.6642 0.135781 -0.526079 -0.951359 0.453123 -0.254753 0.21221
317 1 16.0498 41.5899 50.3983 1.95019 -3.45892 0.701892 0.335946 -0.314069 0.0945638
318 1 42.1147 -0.0253415 2.82698 1.84581 1.57045 1.58138 -0.343214 0.012407 -0.319266
319 2 44.7439 56.0737 32.5213 -2.38581 -1.67897 0.270202 0.453929 0.361028 -0.0384589
320 1 53.3858 35.5248 36.8527 8.51437 1.51486 0.96569 0.348168 0.674381 -0.70954
321 2 12.8839 22.5849 6.62905 -1.72174 1.93541 -0.869032 -0.49202 -0.161357 -0.526779
322 1 16.8541 37.3899 5.70389 1.95252 0.205206 1.34708 0.269263 0.192493 -0.101552
323 1 44.0271 7.87174 42.5511 -1.72859 1.29504 -1.3277 0.361414 0.254669 0.250516
324 1 51.8484 38.0885 31.6111 2.90097 0.140006 -1.11669 0.0560629 0.260779 0.280712
325 1 14.7231 16.858 50.1246 -1.64772 0.871303 -2.74492 0.234945 0.525876 -0.0688499
326 2 39.7037 0.577799 4.13572 -0.40123 0.157186 -3.89637 0.153913 0.216527 0.376897
327 2 21.2774 -1.3399 38.8495 -1.02915 1.61711 0.0048083 -0.177808 0.0852257 0.27822
328 2 28.0563 51.5659 31.724 0.456941 1.43023 -1.34953 0.227932 0.29494 0.351307
329 1 56.7534 8.88026 9.30773 3.02955 -4.0659 -3.20161 0.171065 0.0893774 0.305746
330 2 40.9871 20.9553 30.1592 0.722003 0.942289 0.503957 -0.528781 -0.545405 -0.404297
331 1 11.4285 51.6589 3.24167 1.18873 -1.85211 -1.19039 -0.34367 -0.149839 0.344148
332 2 28.6841 18.5327 30.0105 1.94079 0.00868658 1.17753 0.307562 -0.268752 -0.0776078
333 2 15.9279 52.7142 47.668 2.13107 1.97424 -1.73035 -0.0529073 -0.325158 -0.061393
334 2 44.9816 51.2963 50.8152 1.66775 1.74243 -0.016876 0.391434 0.19258 0.220415
335 2 8.80715 29.2544 4.5026 -0.736172 0.736943 0.488909 0.532347 0.453477 0.692771
336 1 5.35877 50.5465 5.45295 0.697732 0.184023 2.86588 0.0365209 -0.229389 0.10884
337 2 48.6409 29.7492 43.1914 -2.41863 1.54427 -1.56495 0.0896191 -0.147429 0.0265288
338 2 30.4077 12.4642 23.1712 0.0881269 -4.33384 -0.218316 0.35682 0.132016 0.0602266
339 2 4.60318 21.6318 56.1791 1.22498 -0.460022 0.04091 -0.230347 0.0731875 0.22437
340 1 23.0096 0.377944 53.8452 1.98603 1.16207 0.997222 0.117064 -0.0246597 0.0885141
341 1 43.9214 15.2764 38.3183 -0.443849 -3.09414 -1.78493 -0.144877 0.503573 -0.274185
342 2 0.422601 5.28043 25.774 0.599123 -1.02613 1.11908 0.175296 0.122552 0.396618
343 1 18.9412 44.2784 13.0585 2.71761 0.683041 -1.8302 -0.374919 0.167696 -0.176948
344 2 29.2744 29.6305 12.8209 -1.42296 0.139286 2.69871 0.271535 -0.207373 -0.461108
345 2 4.26142 34.3704 17.978 -1.89104 -1.15608 1.28858 -0.127794 0.19298 -0.0701853