ITEM: TIMESTEP
22350010
ITEM: NUMBER OF ATOMS
11664
ITEM: BOX BOUNDS pp pp pp
-1.57367 57.3737
-1.57367 57.3737
-1.57367 57.3737
ITEM: ATOMS id type x y z vx vy vz fx fy fz
1 1 28.1418 33.4932 0.670232 0.91232 -2.82535 -0.50007 0.570592 0.2035 -0.194325
2 2 30.0213 5.6344 31.3963 -1.30585 -0.647504 -1.80391 0.195148 -0.4557 -0.174549
3 2 30.6032 53.7869 15.8738 -1.11986 -0.534844 -2.20892 -0.735433 -0.425661 -0.41185
4 1 40.135 10.4106 8.76806 -2.66644 0.631663 -1.30489 0.128788 -0.0823344 -0.0104337
5 2 46.0318 55.7542 56.7342 1.18736 0.26554 1.89895 0.160671 -0.383337 0.250186
6 2 37.6692 28.6413 15.9181 -0.945263 0.917078 -0.288009 -0.0178534 0.720061 -0.273063
7 2 49.3533 10.7189 30.9759 1.23083 -5.12144 -1.26367 0.164215 0.228073 -0.540027
8 1 -0.234782 0.167674 19.2345 0.214516 -2.21424 3.31595 -0.296424 -0.486328 -0.389368
9 2 10.451 14.4963 5.42773 -0.026007 -2.81828 -1.77054 -0.023743 0.0327291 -0.0594165
10 2 30.4014 54.0266 32.4516 -0.582787 -1.04115 1.92778 -0.557963 -0.0513268 -0.380225
11 1 6.44125 30.6397 46.89 3.92127 -1.13774 -1.177 0.399846 0.867313 -0.538997
12 1 46.7606 25.0817 40.4921 2.17874 -0.0973839 1.64163 -0.0502346 0.291252 -0.261695
13 2 50.4774 45.5021 13.4726 -2.54554 0.288122 0.614086 -0.218891 0.155646 -0.446457
14 1 55.7078 27.5306 53.4871 -1.42628 -0.377924 -2.26135 0.31306 0.288449 -0.170482
15 1 -0.356393 43.4336 37.0267 3.82698 -3.96733 2.83377 0.476388 0.123832 0.0838403
16 2 29.5664 43.2924 26.9048 -0.0847312 -0.766417 -1.7939 0.13208 0.12168 0.303317
17 2 54.1767 39.7329 24.5858 -4.53682 3.56185 -1.51073 0.0917401 0.00256492 0.215047
18 1 8.40598 1.50725 47.2275 -1.41164 1.17833 0.245699 0.186973 -0.831169 -0.118334
19 1 44.3799 17.6565 41.9178 -3.61821 -0.980269 -1.04675 0.126833 -0.14756 -0.348028
20 2 29.3936 15.3543 46.2565 0.68972 0.31981 -1.42604 0.0662421 -0.00814036 0.376137
21 2 16.2343 24.4305 5.07601 -1.16604 1.89395 0.656527 -0.298231 0.370497 -0.915084
22 2 12.2278 19.8128 10.9558 -1.03229 -0.221825 0.829357 0.155302 -0.00418243 -0.0230994
23 2 10.4537 12.5032 56.3534 1.45701 -1.41081 1.02692 0.244814 0.299777 -0.0309246
24 1 10.3464 30.7882 45.7644 -2.63341 1.18277 -0.311728 -0.177875 -0.78071 -0.150158
25 2 52.2621 41.1215 -1.27905 0.161546 1.75997 0.668233 0.206738 0.13767 -0.144614
26 2 12.9297 9.41104 46.4088 0.161817 0.4575 0.738951 -0.589699 0.128311 -0.254755
27 1 13.1115 3.00303 8.30335 2.10422 1.07209 -0.787563 0.581938 0.451139 -0.42046
28 1 28.9838 51.3145 15.7394 1.67671 0.487048 2.39047 0.965742 0.300928 0.261036
29 2 27.0073 38.5115 2.67866 0.388224 0.986135 0.80766 -0.0652942 0.371634 0.566353
30 1 32.8006 30.9871 17.3169 -0.414665 -3.02692 -0.965072 0.967474 0.0604494 -0.23365
31 1 49.4131 32.3935 32.0504 -0.8718 0.350087 0.889902 0.135524 -0.886046 0.247918
32 1 38.6244 11.0626 38.6586 -2.08634 -0.135937 0.607486 0.348483 -0.743731 0.152545
33 2 25.3202 3.36777 12.2585 -0.822013 0.171489 0.248962 0.669344 -0.360874 0.283735
34 1 6.45955 30.6871 39.5503 1.91042 -1.73696 -0.273155 0.11451 0.213018 -0.0179166
35 1 33.4205 30.9115 54.6613 -3.12807 1.83315 -0.227069 -0.505412 0.0283119 -0.273331
36 1 21.8956 8.02218 55.979 -1.75792 0.224565 1.3633 0.188485 -0.0615992 -0.88627
37 1 4.59073 57.3337 28.5468 0.876123 0.878903 -1.16281 -0.117429 -0.171883 -0.0787264
38 1 35.212 53.1512 13.325 -2.72628 -2.6632 -0.429705 -0.93615 0.0832585 -0.260857
39 2 0.704605 14.9993 -0.712571 1.77002 -0.865509 0.466677 -0.417526 0.184363 -0.0599233
40 2 34.1193 44.0442 -1.03462 -1.33473 0.407272 -0.667425 -0.36599 0.798318 -0.373271
41 1 41.7053 15.241 29.0437 -0.403169 2.30625 -0.0991487 0.471066 0.121925 -0.211275
42 1 8.54945 53.8422 20.3444 0.412844 1.23705 0.637743 0.12182 0.0553653 0.0962557
43 1 10.3836 39.3294 15.0151 3.77664 -0.595646 1.34561 0.186936 -0.126495 0.222415
44 1 39.7602 30.5861 15.6499 0.903222 -0.275035 -0.197897 -0.577228 0.0880098 -0.299459
45 2 1.04006 35.4631 7.37755 0.461177 0.904848 1.08385 0.614239 0.32751 0.382217
46 2 3.87194 30.3903 27.8327 2.26244 1.12473 -2.64945 0.187711 -0.0686811 -0.0884975
47 2 4.93909 25.5238 12.9996 -0.323916 1.23634 0.820042 0.179857 -0.0944644 0.574684
48 2 56.8251 50.0514 51.8836 1.55081 -2.03307 -1.80616 0.19181 -0.63471 0.354744
49 1 23.6844 6.91465 0.149136 0.585502 -2.33049 -3.45054 0.0821583 0.285275 -0.850791
50 2 23.5528 50.9941 17.2121 -1.25963 -1.27682 1.56571 0.365834 -0.718817 0.296338
51 1 11.7357 20.1921 42.767 -4.6236 4.21959 -2.57075 -0.0841388 0.164611 -0.210214
52 2 10.2498 24.465 24.4447 -1.8245 0.921847 -0.379192 -0.367196 -0.0678202 0.0940878
53 1 46.6664 31.6602 41.4079 0.20647 -0.43917 0.115115 0.418226 -0.329462 -0.224788
54 1 13.4142 3.39936 49.5908 1.26583 -1.11526 2.15617 0.094839 -0.296507 0.0661291
55 1 19.8488 5.65566 5.6902 0.356714 3.56621 1.46206 0.725146 0.164466 0.044169
56 1 36.2697 11.1475 9.20432 2.74913 2.00071 2.30856 -0.533154 0.277193 0.631524
57 2 3.75412 55.2263 41.5504 -1.15479 0.601079 -2.28334 0.421189 0.444324 0.043993
58 2 44.1626 36.7761 29.9294 0.887822 -2.86852 -1.27848 -0.447672 -0.528441 -0.446499
59 1 6.51214 2.13169 23.389 0.0392554 -3.7399 -0.829631 0.394409 -0.647941 -0.586198
60 2 29.4929 40.009 27.722 1.68252 -0.684476 -1.27795 -0.555715 0.264455 0.505599
61 2 27.5992 45.053 29.1058 -3.27177 -1.80976 -1.76816 -0.119007 -0.390679 -0.151318
62 1 12.8392 11.7207 8.18954 1.20551 0.9797 -0.3349 0.688965 0.368841 -0.625803
63 2 7.28969 24.7809 15.0223 -0.925878 -1.29687 1.12116 -0.400793 0.869866 0.00604088
64 1 26.941 0.621015 4.33725 -3.01136 0.102197 0.0733137 -0.0912369 0.0536199 0.253499
65 2 55.7282 0.260986 54.0043 -2.5331 -2.95774 3.34147 -0.46104 0.334596 -0.104066
66 1 4.32484 6.40655 8.23485 -1.95761 2.12141 -2.7163 -0.179891 0.608587 0.175425
67 2 23.3855 1.14038 11.6707 -0.733599 1.2943 -0.773311 -0.0102986 0.566303 0.495497
68 1 48.5682 45.0523 38.153 2.23233 -3.19156 2.99534 -0.338215 -0.538063 -0.0541032
69 2 24.2502 18.3228 48.6531 0.170144 -0.342289 -0.356976 0.187825 -0.0792838 -0.192866
70 2 6.91001 32.6324 55.3655 -1.13497 1.58073 2.20159 -0.464401 -1.03085 0.467799
71 2 41.9042 22.7035 49.1569 1.66465 -1.57735 -2.4084 -0.017521 0.1174 -0.158524
72 2 6.80138 0.12081 49.6109 1.69691 -3.62175 0.445682 -0.220684 -1.01354 -0.646223
73 1 48.5736 37.5233 19.3985 3.13784 0.919545 -0.894175 0.746607 0.350205 0.447252
74 1 25.26 3.75369 24.6609 1.53576 -1.59798 -0.599842 0.0290213 -0.0907926 -0.29098
75 1 53.6891 0.721851 23.6969 0.885636 -0.550497 2.7052 0.52695 -0.270889 -0.078917
76 1 55.8709 6.52002 42.1025 1.40557 -0.76544 -0.449312 -0.460817 -0.162928 0.335167
77 2 52.5188 56.3997 13.904 0.0871304 2.43299 -1.98177 0.059051 0.144885 -0.240969
78 2 3.49217 48.3983 27.3199 0.226299 0.500893 -0.333831 0.190686 0.663005 0.124724
79 2 25.1997 -1.38842 44.3029 0.906524 1.86001 -0.14501 -0.377019 -0.300443 -0.461097
80 2 21.7991 3.03459 5.21766 -2.56945 1.01418 -0.74053 -0.731854 -0.198313 0.602299
81 2 30.3242 21.9455 17.3346 -0.281163 -0.207747 -0.754778 -0.345019 0.629741 0.155702
82 2 36.3595 21.7437 47.1022 1.41131 -1.26246 -2.74471 -0.0914076 -0.310027 -0.207814
83 1 50.4 19.8742 4.25244 -2.35164 -1.54143 2.50085 0.153764 -0.646709 -0.2305
84 1 43.2313 35.2419 47.7931 -0.804257 -0.5888 -1.32495 -0.281781 0.296135 -0.383947
85 2 7.66598 20.5681 51.9525 0.752046 1.05978 -3.66548 0.0426055 0.933266 -0.0107099
86 1 43.5072 44.5181 43.1304 3.84685 5.86658 -4.14211 -0.0939525 0.0787529 -0.0203143
87 1 42.77 24.6346 47.324 0.0680916 -1.38655 2.14479 -0.0684737 -0.483257 0.0138755
88 1 46.1641 29.3343 42.2002 1.5926 1.54606 -0.394792 -0.279228 -0.618705 0.212029
89 2 44.5583 41.7992 43.5956 0.18953 1.58148 1.08589 -0.158851 -0.438604 -0.20573
90 2 27.1804 23.3566 -0.976574 2.05079 0.572746 0.0806121 -0.371923 0.32713 -0.00780931
91 2 12.3526 52.1561 46.4626 -0.980275 1.23621 0.402097 0.208825 -0.0198805 0.336381
92 2 19.4388 3.18765 24.9479 -2.14442 -0.418178 -1.07137 0.39882 -0.0839261 -0.820873
93 2 25.8736 34.9911 21.1334 -2.26899 0.813123 -1.42724 0.0599079 -0.190515 -0.459802
94 1 34.0365 53.9208 7.96432 0.937116 -2.74751 1.60933 -0.350862 -0.17855 0.171859
95 2 36.9145 29.2062 56.2083 -1.35521 -2.61492 0.310872 -0.444296 0.454511 -0.202471
96 1 22.1511 9.8169 10.0499 -0.0658605 1.23513 -0.749904 -0.282483 -0.148953 -0.103118
97 1 18.999 30.8173 6.34968 0.872964 1.3028 -1.53885 -0.948107 0.0271231 -0.0604899
98 1 7.53299 51.2779 26.2667 1.86712 1.82346 1.16502 -0.0826542 0.0265637 -0.0853285
99 2 7.7938 28.2369 16.1226 3.03398 -0.215427 0.524558 0.205067 -0.250259 0.375063
100 2 7.20027 3.02727 30.453 -1.66382 1.14396 0.466834 0.257535 0.231354 0.111281
101 1 3.63759 26.2221 57.1538 -2.69722 -1.03033 -1.50342 0.438023 -0.448005 -0.141856
102 1 15.4714 13.0165 40.0155 -2.11165 -1.75089 4.92821 -0.331481 -0.332414 -0.124286
103 2 12.9136 2.39143 54.4612 -3.64072 0.0429171 1.49484 0.160989 -0.908438 0.0247053
104 2 0.954623 28.6915 15.1272 1.81205 1.16565 -2.67918 0.367074 0.377252 0.232218
105 2 33.9564 32.5624 4.61684 -1.871 2.30535 -0.492281 0.0477198 -0.557157 0.553301
106 2 21.2656 44.5478 0.890371 -3.36133 -1.29383 1.61295 0.200997 0.313679 0.261805
107 1 54.1539 12.1012 2.18096 3.68833 -0.178262 1.91922 0.30949 0.378342 0.301313
108 1 26.6901 51.8042 8.21427 -1.77461 -4.4804 2.62475 0.122419 -0.434552 -0.298273
109 2 28.917 -1.43859 20.3161 0.0737022 2.21914 -0.55072 0.138376 -0.280226 0.0292133
110 2 20.2121 55.3845 31.2151 -2.64186 -2.44544 -0.567592 0.0584769 -0.769585 0.355815
111 1 21.8556 9.62072 14.6768 -3.34557 1.52593 1.06285 -0.340268 -0.142671 0.358766
112 1 48.3692 55.5521 50.2025 1.19629 2.62653 0.0876661 -0.179849 -0.78369 -0.0200141
113 2 48.1556 29.4808 33.5143 0.827517 -1.1097 2.98849 -0.101655 -0.462845 -0.116997
114 1 53.6831 47.3106 20.6693 -3.62403 -1.26829 -2.30004 -0.0505836 -0.0338239 -0.0203869
115 1 56.0325 56.5235 38.1402 -0.219273 1.61818 -0.0402021 0.352933 -0.0307187 0.336897
116 2 33.7738 42.9218 13.169 4.67128 -0.263851 -0.519258 0.170686 -0.37384 0.0403404
117 1 17.2916 55.4691 14.1302 3.61971 -2.74667 1.27101 0.307244 -0.230995 0.399365
118 2 4.25578 32.3729 20.6746 -0.468335 -3.22716 0.8676 -0.0918928 0.212746 0.147583
119 1 38.508 8.13411 50.0064 -2.16743 -2.78799 0.457325 -0.223498 0.335905 -0.207645
120 2 33.5455 32.3883 35.9548 -1.85536 1.64953 -0.974262 0.0129576 0.0650619 -0.352684
121 1 16.8259 36.4108 36.8767 -0.93358 2.00352 -1.83921 -0.766523 0.246259 -0.0891089
122 2 1.32397 17.7447 53.1825 1.31308 -1.81979 2.8838 -0.0746648 -0.176554 0.358696
123 2 11.4791 10.9845 16.6824 0.204678 -1.71975 -0.224697 -0.10587 0.277934 -0.176377
124 2 49.0361 54.5903 26.403 0.792016 0.432134 1.14233 0.0670142 0.279556 -0.0646506
125 2 48.9605 10.4338 10.7875 2.34717 -1.54377 -1.07322 -0.224974 -0.309708 0.663589
126 2 54.4229 13.0645 45.2612 -1.60885 0.921696 2.43873 -0.364131 -0.917406 0.258737
127 1 1.77551 50.2442 23.0945 -2.1651 -2.85408 -1.5104 -0.454377 0.429754 -0.506618
128 2 39.4486 49.3468 39.1812 -0.0837095 -0.940189 -0.492818 0.173241 -0.105935 -0.721555
129 2 31.5007 19.1683 35.7307 -2.94889 4.34703 1.04657 -0.557048 0.0189077 0.197661
130 1 13.5863 7.89459 41.4262 1.78509 2.09428 -0.661879 0.195613 0.0755781 0.407654
131 2 9.44882 35.9219 11.5848 0.0877425 -0.30311 1.78993 0.0909106 0.69197 0.207037
132 2 22.1716 9.99652 -1.10768 -1.31286 -3.57035 -0.748509 -0.125308 0.725084 -0.0762284
133 2 43.9438 39.9433 32.962 -0.659748 -0.638724 0.788918 -0.445166 0.403049 -0.0307462
134 1 47.2395 38.0535 10.5574 -0.960994 1.59428 0.111967 0.379176 -0.0642982 0.136754
135 1 4.18661 8.5048 34.9505 2.877 1.15967 -3.05391 -0.0139332 0.301856 -0.251399
136 2 56.095 27.364 46.6789 -1.16117 0.459431 0.0449948 -0.0696599 0.0110935 0.0151035
137 1 23.676 5.74175 14.3887 -0.203019 2.19827 -0.792359 -0.592545 -0.348912 -0.214568
138 1 13.4869 30.0014 51.5693 0.658129 0.96405 -0.730447 -0.236758 0.0856685 -0.0498549
139 2 39.4457 57.2387 30.3892 -1.67837 0.458315 0.666818 0.164516 0.148406 -0.176553
140 1 14.3949 5.69463 40.4679 -3.37603 2.31373 4.38013 0.5293 -0.0807773 0.184094
141 1 47.1628 7.39148 23.6438 -0.035348 0.064704 0.438368 0.240992 0.249271 0.121281
142 2 23.7645 31.2122 53.6461 0.867989 -0.161488 2.38828 -0.00454821 0.439693 -0.253159
143 2 4.10151 9.12444 10.2066 0.620407 1.9508 2.52839 -0.106605 -0.242291 -0.0246551
144 2 22.1728 19.5078 53.7348 -1.35973 1.79342 3.9308 -0.436526 -0.257258 0.806804
145 1 55.2168 42.7587 49.4778 0.323586 -0.293549 0.635471 -0.776827 -0.0171897 -0.163668
146 1 50.2529 34.2523 8.86359 -1.82061 1.99568 -2.19989 -0.315479 -0.0242086 0.044445
147 2 20.0617 52.6369 9.79135 -2.60857 0.879887 1.55367 0.0315645 0.45409 0.032538
148 2 47.3322 34.9388 45.2857 0.776608 1.08145 0.637828 0.263171 0.100897 0.461966
149 1 13.0917 14.4046 33.4555 1.43574 0.994149 1.35367 -0.277546 0.272948 -0.663248
150 2 23.0779 57.3033 41.4283 0.429756 1.55205 -0.213841 -0.116983 0.880213 0.622869
151 2 12.6213 18.8089 49.065 1.34399 2.60599 1.74187 0.142558 0.145795 -0.732372
152 2 7.97898 22.0513 24.7827 1.02256 -1.87465 0.537889 0.519554 0.588173 -0.677525
153 2 48.9534 29.5545 26.0705 -3.95674 -2.90384 1.91659 -0.42491 0.182788 -0.808528
154 1 32.4565 1.83845 6.65752 2.52639 1.08271 -0.887258 -0.255833 0.624236 0.520893
155 1 23.7127 9.49428 17.2181 1.90417 -1.82084 3.05278 0.262566 -0.195745 -0.236338
156 2 29.8694 42.9545 50.194 -0.418146 -2.74973 0.0386599 -0.720319 -0.200948 -0.217081
157 2 55.0084 -1.4519 12.1781 2.68473 -0.516581 0.429187 -0.482873 -0.0179095 0.126288
158 2 10.9327 43.7671 55.5871 -2.01582 -0.643296 0.454446 0.206448 0.0239686 -0.0551134
159 2 19.6881 23.934 45.7729 -0.464977 -1.84127 -2.35319 -0.350777 -0.289717 -0.360025
160 2 40.7318 34.7699 17.5216 -0.44799 1.32578 -1.01785 -0.0339802 0.435465 0.249712
161 2 38.1908 8.37574 38.0493 0.0127741 -0.792848 -1.70285 0.173038 -0.0101164 0.111389
162 1 18.5727 25.6966 16.7021 1.46965 1.03497 0.568542 0.0172057 -0.131756 0.00471731
163 2 16.3225 49.9909 56.2209 1.12593 0.582081 1.0942 0.378022 0.147675 -0.409825
164 2 49.7665 6.67161 6.38676 -0.179932 -3.33622 -0.0107935 -0.305234 -0.441719 -0.0498569
165 1 49.1808 27.1524 5.80617 0.416305 2.77653 0.0942562 0.283135 0.509645 -0.101236
166 1 42.9246 11.2527 45.0893 0.838739 2.97248 -2.697 0.272095 0.165182 -0.65636
167 1 55.4418 35.7907 5.41957 0.229059 -0.947155 -5.12045 0.373043 -0.0425432 -0.12031
168 2 26.3666 2.30332 46.3953 2.57369 0.110998 -0.888569 0.0367465 -0.780136 0.0439809
169 1 17.6489 25.1029 26.7177 -1.75116 -3.20737 -2.22856 -0.267547 0.251098 0.0182161
170 2 29.0147 27.0515 17.5069 3.09658 -0.832796 0.661774 -0.102975 -0.544997 -0.625681
171 1 23.2164 27.5147 32.6204 -1.5285 -1.42715 -0.322054 0.0804569 0.0972246 -0.141781
172 2 1.02189 37.5338 0.16292 1.00161 -1.08786 3.81158 -0.459124 -0.195409 0.0372692
173 2 54.4019 0.502214 14.601 2.01234 1.31947 -1.27607 -0.345898 -0.213684 -0.46626
174 1 14.8983 18.1755 33.6897 1.41751 -0.637437 -2.27924 -0.290135 -0.341101 -0.00363566
175 1 55.236 13.0383 4.1145 0.972375 -1.79746 0.507865 0.567956 -0.123276 0.252678
176 1 31.8829 53.0462 24.6704 0.0778477 -2.53176 -0.363639 -0.11553 -0.118491 0.131168
177 1 10.0444 8.80189 15.4323 1.65153 0.0913905 -0.365504 0.605322 -0.547124 -0.0251873
178 2 35.8017 0.37629 -0.395649 -4.63179 0.646336 -0.978421 -0.190076 -0.317979 0.0210496
179 1 7.60182 2.59707 49.4543 1.91309 -0.802709 -0.235652 0.0282293 0.429717 0.226043
180 2 29.5238 52.7523 8.49534 -0.117702 0.942584 -2.49984 0.2836 -0.523804 -0.184316
181 1 22.9456 8.82623 22.666 1.80306 -2.45732 0.935193 -0.414513 -0.451058 0.32783
182 1 52.2223 43.4982 30.164 -2.66537 2.08429 -1.40234 -0.346443 0.0561152 0.237134
183 2 47.4084 10.8222 21.7992 1.40969 -0.045859 -1.89088 0.386409 -0.394946 -0.764811
184 1 19.013 44.7023 24.432 -2.07147 -0.392691 -1.82874 0.0190707 0.060832 0.397438
185 1 30.0413 4.57544 45.2111 3.69103 1.78237 -2.57472 -0.161661 0.0322432 -0.382007
186 1 56.5038 4.82777 31.617 1.36694 0.716792 1.37097 -8.76879e-04 -0.0925234 -0.29472
187 1 44.4041 25.7421 3.83625 -1.66891 -0.342825 3.53001 -0.87076 0.183219 -0.0105245
188 2 23.9068 46.0419 2.66932 -0.870084 0.0978197 3.03696 -0.0420757 -0.0486589 -0.30844
189 2 -1.55741 52.0838 11.5818 1.27607 -0.930074 0.186228 0.565787 0.270209 -0.448513
190 1 17.5398 42.7578 46.4276 -1.08587 1.08048 -4.28233 0.268383 -0.36046 0.0694371
191 2 50.8856 42.9628 32.3821 0.271604 -0.935317 -0.327477 0.248194 -0.221331 -0.526359
192 2 20.4487 47.0458 38.6187 -0.503252 3.92229 -0.746275 0.599829 0.0905861 -0.50224
193 1 0.913446 26.234 49.5772 1.21035 -2.20391 0.317343 0.561856 0.534763 -0.120887
194 1 13.4561 23.2789 26.2162 0.683034 -0.531313 0.0551977 0.549232 -0.604126 -0.231647
195 2 14.3065 -1.46142 -0.706 -0.605355 -0.328318 -3.33437 -0.134542 0.341078 0.793525
196 2 45.13 4.66021 11.6802 -0.382908 -1.05561 -0.562714 0.430061 0.25641 0.593268
197 1 24.5043 9.94013 39.1825 0.342472 0.48089 3.76971 0.321313 -0.118829 -0.375992
198 2 8.81149 17.4653 5.26476 -0.21954 1.48761 0.620549 -0.419061 -0.377357 -0.117531
199 2 0.109755 16.2483 31.3552 1.16044 -0.379055 0.120967 0.188094 -0.0949072 0.711523
200 2 41.8623 50.2433 28.0936 1.25654 -0.952332 -1.28436 0.861042 0.778714 0.144057
201 2 41.103 37.4918 40.1605 2.7231 2.81248 3.1135 0.761987 0.0632032 0.111279
202 2 20.3027 27.5618 3.14566 0.349414 0.807723 1.83855 0.165127 -0.281886 -0.210932
203 1 21.9787 9.18837 5.74852 0.570995 -2.92267 1.95454 -0.416248 0.255213 0.350804
204 1 12.32 44.4663 6.39484 1.45856 -1.3546 0.62842 0.18412 0.0675837 -0.154432
205 1 45.6144 30.8521 3.46276 -0.835888 -1.12157 -0.742527 -0.159032 -0.173473 0.632329
206 1 52.8943 45.1358 25.678 -0.864554 -2.55539 2.66885 0.781267 -0.370881 -0.0432459
207 1 21.5001 53.3066 13.0378 0.407281 2.11493 -0.826695 -0.168052 -0.104353 0.649728
208 1 23.6892 41.0211 -0.229925 -4.00113 -0.783783 -0.223256 0.328935 0.548069 0.370593
209 2 36.0258 47.9674 17.9612 -0.763813 -1.79535 -1.58374 0.349242 -0.436282 -0.331923
210 2 34.3987 5.70971 40.7238 0.843967 0.819464 0.369572 -0.689754 0.232067 0.944573
211 2 20.3343 1.58316 11.449 -0.67525 0.060818 0.875581 -0.661675 0.339806 0.111104
212 2 -0.438059 21.3072 27.2593 0.795484 1.62157 2.34884 -0.212601 0.668457 -0.29977
213 2 1.26058 45.837 17.4578 0.183672 0.61269 -1.22073 -0.589523 0.446268 -0.205004
214 2 23.6433 25.4029 27.3713 0.281304 -1.20394 0.630475 -0.0835677 -0.465794 -0.202713
215 1 12.4201 12.6102 19.0382 -0.55931 1.66242 3.29808 -0.34952 -0.18483 -0.329623
216 1 2.42439 52.0692 43.5714 0.37297 2.67971 1.06417 0.4539 0.0809471 -0.14665
217 2 24.6984 2.68157 27.4156 1.4304 -0.167202 0.282096 -0.00472143 0.0219843 0.435921
218 2 46.6931 42.1788 14.4924 -0.142566 -0.0541649 -1.53029 0.213789 0.0853152 0.413961
219 2 30.5616 0.0236307 7.95618 -3.44697 -0.220508 0.410454 -0.115921 -0.320247 -0.538582
220 1 22.537 17.9938 2.59314 -0.127871 -2.81508 3.4344 -0.382578 0.214692 0.0962391
221 1 23.858 0.422786 14.3601 1.13643 0.34554 -0.998613 0.43408 -0.0571335 0.0562723
222 1 50.989 26.7269 9.85199 3.24017 -1.71868 -0.632431 0.423465 0.323871 0.160127
223 1 19.8415 4.38645 -0.369156 -1.2415 0.374595 -2.42158 0.503922 0.103938 -0.00402628
224 1 55.6467 57.0087 5.84083 -2.11331 -1.49569 1.91338 -0.0663744 -0.0560836 -0.453747
225 2 32.2193 3.32409 49.5457 -0.56202 0.024315 0.129925 0.46681 0.394555 -0.128421
226 2 9.86428 2.73204 26.5542 -0.160462 1.67746 0.851764 0.0957348 0.114707 -0.158621
227 1 29.3413 17.6325 34.4607 -0.214274 -0.887128 1.79447 -0.166154 -0.589006 0.686146
228 1 37.4732 2.18454 54.3728 -1.34505 -1.44625 1.94783 -0.355272 0.162711 0.154325
229 1 54.6047 0.205319 26.6386 -0.324996 3.3771 0.839235 -0.574504 -0.305496 -0.203236
230 1 14.0318 1.77495 24.9211 -0.837171 -0.0927272 1.02836 0.200673 0.665507 -0.0679343
231 2 55.6855 40.4468 28.8429 -2.03998 0.0404599 -1.57512 -0.329323 -0.0846673 -0.278405
232 2 36.8122 38.1482 15.4554 0.511424 -0.886871 -1.14304 -0.0158827 -0.114056 -0.0582821
233 2 26.848 30.1772 10.4812 -0.118912 1.42246 -1.4218 -0.184864 -0.190575 -0.339065
234 1 8.47932 17.2139 2.35744 3.51423 2.60201 0.786657 0.068799 0.512513 0.191852
235 1 19.2291 53.0636 2.68144 1.32778 -1.32027 2.01318 -0.177711 0.0528356 -0.147293
236 2 1.04357 11.8075 -0.901551 -0.725532 -2.536 0.491686 -1.14643 -1.09939 0.572022
237 1 2.95178 18.3046 51.1636 -0.240141 -1.50937 -1.57168 -0.1476 0.440591 -0.210794
238 1 30.8034 48.2361 47.7753 1.28738 5.58459 -3.24078 0.738101 0.252455 -0.819635
239 2 -1.43564 19.2515 46.1644 3.16171 0.944569 1.90979 0.554536 -0.338715 -9.68257e-04
240 2 28.5543 49.7664 8.53616 -2.22435 1.24356 -2.02609 0.04628 0.0720117 -0.0894399
241 2 51.8981 6.60363 36.5707 -1.40536 2.52293 0.551869 0.30785 -0.332594 -0.656278
242 2 41.3066 56.7157 46.8842 0.0374926 -0.074211 -0.512327 -0.35338 0.0656001 0.0379394
243 1 10.2566 55.7576 41.2279 2.49397 -1.64698 3.04146 -0.600063 -0.300262 0.254624
244 1 37.9362 46.7617 30.707 0.422956 0.0836972 -1.27296 0.305739 -0.298385 -0.709883
245 1 16.5323 21.8355 12.3798 0.297837 0.784362 -1.9882 0.208217 0.432197 -0.44416
246 2 25.969 53.6232 20.2396 -2.71244 -2.21504 -0.463317 0.247405 -0.380475 -0.23308
247 1 47.4867 34.4617 39.0922 -0.329517 0.280326 2.16761 0.205976 -0.78224 -0.459695
248 1 14.2733 3.07133 1.31684 2.93273 -2.30745 -0.496028 0.03127 0.310135 0.434996
249 2 13.1992 14.1766 45.9818 -1.69054 1.40852 1.2851 0.134092 -0.812202 -0.227096
250 2 1.75397 -0.137912 12.0045 -0.421317 3.43265 0.250807 -0.161619 0.0582152 0.25466
251 1 15.986 55.7331 2.40073 1.18776 1.4559 -0.0306677 0.722435 0.491718 0.549169
252 2 14.2967 16.591 15.9203 -2.8226 -1.12191 -2.53771 -0.159035 -0.370599 0.20214
253 1 9.62645 23.6228 43.9708 0.955994 -1.18204 3.12564 0.201727 0.438071 -0.194199
254 1 0.439512 49.3735 5.11392 2.55525 0.59204 -0.970589 -0.0628277 -0.655579 0.342667
255 2 19.4115 42.263 31.7441 0.472319 -0.0116288 -0.0434939 -0.711017 -0.402771 0.28328
256 1 25.9334 54.9906 44.3209 4.31109 0.0926656 -0.593415 -0.0932466 -0.10399 -0.294457
257 1 14.4615 34.9024 26.1472 2.91029 -2.52552 -0.113665 0.555748 -0.268132 0.27934
258 1 50.4882 50.1344 17.3134 1.20782 -1.47507 3.1172 0.308334 -0.0771432 0.120506
259 2 0.925836 0.308778 49.2909 2.06974 -1.77961 2.37985 -0.0793782 -0.11459 0.317328
260 2 42.6568 51.3065 4.8612 -1.73749 2.26794 0.513936 0.02582 -0.063454 0.225833
261 2 28.3409 3.88177 33.6107 3.03179 -0.751304 -1.23083 -0.701482 -0.123468 0.629771
262 2 29.404 16.5674 -1.34232 1.25271 -3.93062 2.55124 0.85711 -0.199092 -0.104504
263 1 25.8626 23.395 19.5078 -0.533487 0.198296 0.604092 -0.263775 0.307797 -0.932495
264 1 47.6117 35.6483 10.9732 2.5306 4.92743 -1.77617 0.0711982 0.272947 0.398781
265 1 15.647 47.0329 33.2409 -0.299294 -2.46309 -4.82293 0.684577 0.318718 0.678804
266 2 13.5425 4.33832 10.4968 0.835088 0.0316369 0.402837 0.401587 -0.00170425 -0.236358
267 2 9.63248 24.2535 40.9943 -1.22646 -1.21924 0.505158 0.154087 -0.0232838 -0.311743
268 1 12.7646 20.2398 29.7251 2.42131 1.74713 -1.98458 -0.0831133 -0.618383 0.790365
269 2 4.76862 5.26681 57.1331 1.8692 2.42793 -1.12868 -0.292598 0.606048 -0.0566477
270 2 54.4241 47.2395 40.1408 -0.787297 -2.08231 -2.58133 -0.492411 0.922849 0.313426
271 2 45.2531 18.8343 22.5648 -2.85229 2.55074 -1.30097 0.39621 -0.127315 0.334615
272 1 4.97217 34.1628 23.0357 -2.8016 -2.19099 0.651199 0.32738 -0.578632 -0.350482
273 1 24.5573 14.1068 56.6838 4.0357 1.34719 -2.3779 -0.108354 0.193293 -0.0697799
274 1 48.6035 10.4015 38.5149 -0.455735 0.551555 -1.06404 0.501032 -0.353825 0.230356
275 1 20.9963 7.38098 46.1339 2.81982 -1.26275 1.11306 0.26086 -0.122275 -0.21495
276 1 8.18521 33.5712 35.8362 1.08841 -2.17653 0.298069 -0.427698 -0.395413 0.19703
277 2 8.04477 27.0083 37.0159 -0.00616028 0.901087 0.132437 -0.110822 -0.0409549 -0.457205
278 2 40.2599 12.2951 11.2914 2.40783 4.33527 -3.21063 -0.11573 -0.196889 -0.291655
279 1 23.6598 41.9016 7.92824 0.636542 -0.804138 -4.51319 -0.360268 -0.0389793 0.389889
280 1 37.194 47.4387 46.2763 -0.874092 0.51214 1.78368 0.0898712 -0.229798 -0.281227
281 2 50.645 22.0952 5.42044 -1.1906 0.887915 1.03904 -0.147687 0.698333 0.338425
282 1 49.9377 6.49972 53.4018 -0.0234161 2.07467 1.02963 -0.439312 -0.28477 -0.593077
283 1 7.30095 1.95697 9.73035 -1.16997 0.719612 3.3407 0.0930491 0.0233153 0.164339
284 2 41.4634 32.2538 29.2439 2.82431 -2.25602 3.51728 0.356195 -0.208925 -0.284907
285 1 34.1922 13.7487 38.7683 1.00624 2.07115 0.517668 0.172116 0.53248 -0.0154005
286 2 -0.103562 45.9126 0.675676 -1.02638 -0.316191 -2.04342 -0.190914 -0.0446277 0.602819
287 1 27.104 51.8993 53.3961 -0.0424149 -1.73557 -0.652938 -0.596406 0.286315 0.0572785
288 1 11.8854 23.9511 44.9571 -0.390848 0.278667 1.08843 0.363641 -0.139995 -0.0638053
289 1 -1.10513 14.4404 24.5055 -3.34963 1.05363 0.531752 0.631384 0.0800797 -0.613155
290 2 9.90429 3.94767 45.3843 0.122929 -1.39569 -1.89125 -0.338291 -0.237293 -0.125901
291 2 15.6786 27.3817 52.6882 0.854891 0.54724 0.978456 -0.0204264 0.474644 -0.296387
292 1 13.5674 16.1866 48.0302 2.1695 0.261656 1.15011 -0.754408 -0.0749175 -0.0609195
293 1 26.9259 52.4414 37.2494 -1.44892 1.91119 -3.90056 0.123282 0.412373 -0.405771
294 1 48.1011 26.1833 32.9188 0.401131 -0.0438444 -4.41805 -0.480318 -0.481184 0.565738
295 2 48.1658 53.4723 15.9428 0.873297 -0.424822 -1.06219 -0.391871 0.452047 0.259689
296 1 49.5751 4.73586 26.9256 1.00664 -1.52437 -0.661065 0.070067 0.0955444 -0.0800166
297 1 48.8825 55.1345 10.742 -2.97579 -2.32816 -1.42989 0.0198347 -0.345027 -0.0427554
298 1 33.4837 39.9579 43.6925 -4.62024 -3.46796 -0.0151103 -0.496965 -0.312508 0.31222
299 1 24.5211 40.2854 19.9659 -0.767568 -0.782189 -1.71069 0.488085 -0.29803 -0.30396
300 1 49.3258 39.0855 23.7463 -1.09858 0.232809 2.10322 0.363898 -0.142024 -0.405353
301 1 24.1148 19.3854 40.9777 -3.23498 0.353963 -0.374076 0.627752 0.266284 -0.396991
302 2 36.5844 31.8594 36.281 1.08999 -3.07699 -0.00503387 0.0895384 -0.116678 -0.38346
303 1 11.7691 3.64947 36.1221 -0.296436 1.69433 -2.67187 0.515115 -0.280836 0.106214
304 1 0.77876 43.149 25.043 -4.05192 -2.02851 1.46923 0.0497481 0.251906 0.294159
305 1 4.6223 3.43395 -0.0338259 2.19074 -1.04758 -1.63835 0.0401688 -0.338599 0.611969
306 1 1.81214 54.6083 51.8887 -1.10779 -2.02344 -4.85036 -0.0436786 -0.177815 -0.0599003
307 2 51.3973 16.1181 41.7624 2.23093 -0.070146 -4.09299 0.0940803 -0.0506824 0.112254
308 1 9.10403 -0.256137 36.4042 0.204573 2.41648 1.86203 0.714139 -0.222754 -0.0984668
309 1 1.4912 52.1805 15.0274 -0.303459 4.03809 -0.0830763 -0.253653 -0.0417797 0.262052
310 1 45.3817 47.0251 24.4622 -2.25735 -3.14741 -0.710521 -0.276162 0.276525 0.0221513
311 2 18.8188 21.9375 48.1338 -0.238703 0.362801 -2.94832 -0.262822 0.0553424 -0.145287
312 2 6.77914 40.6562 5.94938 -0.856844 -0.954978 -0.0614337 0.0998488 0.185356 -0.10072
313 1 55.254 17.5189 7.38995 0.451475 -0.674576 -0.926311 -0.166549 -0.00689493 0.274846
314 1 56.0974 24.8999 47.6893 2.48506 2.19105 0.375733 -0.476035 -0.11793 0.0116196
315 2 32.5388 25.5205 48.7893 -2.23246 0.971809 -1.63118 0.313026 0.487761 0.390586
316 1 45.4831 32.1544 35.6526 1.23627 -1.0019 -0.458329 0.427067 -0.119944 0.204662
317 1 16.0873 41.5294 50.4091 2.59604 -3.92893 0.673495 0.167188 -0.0570807 -0.122321
318 1 42.1363 0.00100326 2.84588 0.896269 1.56833 0.576205 -0.425282 -0.0109462 -0.501084
319 2 44.7115 56.0515 32.5253 -1.55618 -0.894062 0.27382 0.509789 0.555131 0.030837
320 1 53.5249 35.5612 36.8552 8.77603 3.00054 -0.505396 -0.161631 0.523988 -0.473768
321 2 12.851 22.6129 6.6091 -2.41072 1.46605 -1.70433 -0.29877 -0.38198 -0.430109
322 1 16.89 37.3977 5.72345 2.39962 0.906722 0.922726 0.0872617 0.383487 -0.244504
323 1 44.0065 7.89696 42.535 -0.721812 1.66265 -0.572399 0.441033 0.036652 0.353772
324 1 51.8933 38.0959 31.5987 2.72947 0.865659 -0.394347 -0.191267 0.327482 0.314943
325 1 14.7022 16.882 50.0808 -1.01135 2.0078 -2.46408 0.28784 0.395449 0.288182
326 2 39.6991 0.585365 4.0798 -0.0962401 0.719723 -3.18385 0.206779 0.458479 0.462495
327 2 21.2588 -1.3123 38.8532 -1.31136 1.63482 0.534787 -0.134031 -0.0746471 0.32307
328 2 28.0662 51.591 31.7074 0.749525 1.7639 -0.678619 0.113393 0.0893083 0.431534
329 1 56.8023 8.81898 9.26512 3.09885 -3.60712 -2.0993 -0.125621 0.27615 0.585272
330 2 40.9907 20.9629 30.1614 -0.220887 -0.0348791 -0.231382 -0.550412 -0.581951 -0.441699
331 1 11.4402 51.6253 3.23223 0.142024 -2.21482 -0.0293525 -0.450946 -0.143691 0.543103
332 2 28.7191 18.5294 30.0272 2.41428 -0.472585 0.866625 0.236336 -0.278666 -0.280726
333 2 15.9604 52.7403 47.6392 1.77077 1.4122 -1.72428 -0.380604 -0.330286 0.056208
334 2 45.0134 51.3252 50.8152 2.41902 1.95331 0.0172021 0.478267 0.0549004 -0.194517
335 2 8.80316 29.2717 4.51945 0.124706 1.39319 1.40326 0.479031 0.303084 0.371544
336 1 5.372 50.5425 5.50055 0.862257 -0.656382 2.88034 0.0901674 -0.433764 -0.0961538
337 2 48.6041 29.7719 43.1664 -1.96826 1.29738 -1.45982 0.447924 -0.148116 0.100561
338 2 30.4135 12.3982 23.1687 0.620074 -3.92656 -0.12699 0.252518 0.342434 0.0318502
339 2 4.62028 21.6258 56.1823 0.773131 -0.301876 0.537895 -0.294393 0.110952 0.352239
340 1 23.0422 0.396572 53.8618 1.94204 0.986179 1.21107 -0.15117 -0.11621 0.0833642
341 1 43.9105 15.2388 38.2843 -0.862508 -1.56342 -2.37954 -0.205786 0.734539 -0.198692
342 2 0.435203 5.26652 25.7961 0.800761 -0.829173 1.53784 0.0577852 0.113995 0.0957993
343 1 18.9765 44.2913 13.0272 1.56395 0.960262 -2.09737 -0.577455 0.0523025 -0.0387716
344 2 29.2555 29.6301 12.8564 -0.934336 -0.153493 1.53863 0.286065 -0.117133 -0.878001
345 2 4.23091 34.3549 17.998 -2.00275 -0.703348 1.14761 -0.00172938 0.339924 -0.104198
346 1 52.6871 34.3093 34.4595 1.47718 3.30548 1.44596 -0.650536 0.365678 0.160552