ITEM: TIMESTEP
22350009
ITEM: NUMBER OF ATOMS
11664
ITEM: BOX BOUNDS pp pp pp
-1.57382 57.3738
-1.57382 57.3738
-1.57382 57.3738
ITEM: ATOMS id type x y z vx vy vz fx fy fz
1 1 28.1402 33.499 0.671029 0.737075 -2.88299 -0.442811 0.586469 0.166257 -0.184426
2 2 30.024 5.63548 31.3998 -1.34235 -0.550395 -1.76898 0.143357 -0.465431 -0.164527
3 2 30.6053 53.788 15.878 -0.967088 -0.443595 -2.12212 -0.714225 -0.439515 -0.419583
4 1 40.1405 10.4092 8.77056 -2.70245 0.657923 -1.29806 0.0990889 -0.0883978 -0.0390095
5 2 46.0295 55.7537 56.7306 1.15062 0.345733 1.84842 0.192435 -0.373378 0.236833
6 2 37.6711 28.6396 15.9186 -0.940006 0.762764 -0.233235 -0.036512 0.743133 -0.24611
7 2 49.3509 10.7291 30.9783 1.19573 -5.16611 -1.14774 0.173718 0.168853 -0.562073
8 1 -0.235451 0.171809 19.2277 0.304357 -2.06276 3.43297 -0.294404 -0.518703 -0.369753
9 2 10.451 14.5019 5.43114 -0.0222259 -2.82005 -1.75818 -0.0121269 -0.0299261 -0.0662593
10 2 30.4024 54.0288 32.4477 -0.465224 -1.02688 2.00475 -0.556191 -0.0887462 -0.337754
11 1 6.43342 30.6422 46.8923 3.79488 -1.40125 -1.01179 0.445868 0.863876 -0.552892
12 1 46.7563 25.082 40.4888 2.18946 -0.184118 1.71816 -0.0128801 0.279521 -0.236618
13 2 50.4826 45.5016 13.4712 -2.49286 0.257802 0.705232 -0.291667 0.132378 -0.412067
14 1 55.7109 27.5314 53.4917 -1.51953 -0.462454 -2.20866 0.296049 0.266843 -0.184226
15 1 -0.364055 43.4416 37.0211 3.67916 -4.00028 2.80481 0.510124 0.0794984 0.116611
16 2 29.5666 43.294 26.9084 -0.112762 -0.791316 -1.85685 0.132465 0.109891 0.282838
17 2 54.1859 39.7259 24.5889 -4.55439 3.56161 -1.55364 0.0518215 0.0173229 0.183108
18 1 8.40875 1.5045 47.2271 -1.46785 1.43079 0.280835 0.178285 -0.827086 -0.112177
19 1 44.3873 17.6584 41.9199 -3.65386 -0.93484 -0.942924 0.0954419 -0.154946 -0.339204
20 2 29.3922 15.3536 46.2595 0.672923 0.321051 -1.50358 0.0959487 -0.00201064 0.349706
21 2 16.2366 24.4268 5.07438 -1.10333 1.81423 0.848617 -0.300268 0.392419 -0.89741
22 2 12.2298 19.8132 10.954 -1.06496 -0.220349 0.831991 0.148467 -0.0108733 0.00230714
23 2 10.4508 12.506 56.3515 1.40348 -1.47367 1.03464 0.268449 0.28738 -0.0369176
24 1 10.3515 30.7856 45.765 -2.58003 1.41827 -0.265207 -0.182676 -0.765881 -0.157235
25 2 52.2619 41.1181 -1.28057 0.118139 1.72993 0.699399 0.204364 0.154986 -0.146679
26 2 12.9292 9.41006 46.4073 0.284535 0.429886 0.793339 -0.569501 0.134973 -0.255689
27 1 13.1074 3.00089 8.30469 1.92333 0.936322 -0.657715 0.61636 0.446499 -0.437254
28 1 28.9808 51.3138 15.7346 1.38135 0.395527 2.30859 0.984824 0.303376 0.286345
29 2 27.0065 38.5097 2.67703 0.400264 0.905528 0.685349 -0.0465926 0.395187 0.593795
30 1 32.8017 30.9931 17.3187 -0.704765 -3.04008 -0.893961 0.941285 0.0157316 -0.237907
31 1 49.415 32.3925 32.0487 -0.912761 0.620187 0.812853 0.131187 -0.89124 0.262485
32 1 38.6288 11.0626 38.6575 -2.18873 0.0890134 0.561453 0.31855 -0.737942 0.152653
33 2 25.322 3.36722 12.2579 -0.962588 0.247618 0.189272 0.655384 -0.357893 0.281724
34 1 6.45565 30.6906 39.5509 1.87588 -1.79863 -0.26404 0.119463 0.187104 -0.0430443
35 1 33.4266 30.9079 54.6618 -2.9682 1.82484 -0.141201 -0.558011 0.0327313 -0.292857
36 1 21.8991 8.02161 55.9761 -1.8129 0.247481 1.61907 0.167464 -0.0885135 -0.793151
37 1 4.58881 57.332 28.5491 0.909251 0.931396 -1.13983 -0.0976833 -0.17073 -0.0765839
38 1 35.2172 53.1567 13.3257 -2.43946 -2.68503 -0.352199 -0.961838 0.0513071 -0.250966
39 2 0.700831 15.001 -0.713669 1.85521 -0.904673 0.479387 -0.378934 0.181555 -0.0579061
40 2 34.1219 44.0436 -1.03351 -1.25476 0.239838 -0.586077 -0.396554 0.786377 -0.398973
41 1 41.7063 15.2364 29.0439 -0.546364 2.26856 -0.032591 0.470423 0.134194 -0.227321
42 1 8.54856 53.8399 20.3432 0.374704 1.22124 0.609667 0.130737 0.0529405 0.0908119
43 1 10.376 39.3306 15.0124 3.71794 -0.55321 1.27954 0.212635 -0.154981 0.217265
44 1 39.7582 30.5867 15.6501 1.07891 -0.301225 -0.10724 -0.576515 0.0834971 -0.298167
45 2 1.03912 35.4614 7.37536 0.331491 0.837649 1.00059 0.613909 0.312168 0.410177
46 2 3.86733 30.3881 27.8379 2.22206 1.13897 -2.62781 0.205245 -0.0603017 -0.129179
47 2 4.93966 25.5213 12.998 -0.360036 1.25497 0.698225 0.159968 -0.0755261 0.580848
48 2 56.8222 50.0554 51.8874 1.51013 -1.89965 -1.87979 0.200415 -0.636564 0.332334
49 1 23.6832 6.91929 0.155633 0.559953 -2.41444 -3.19217 0.0880908 0.259474 -0.86239
50 2 23.5554 50.9967 17.209 -1.33408 -1.12529 1.50423 0.331649 -0.719849 0.292527
51 1 11.7448 20.1837 42.7721 -4.59291 4.16368 -2.50247 -0.133885 0.218076 -0.248181
52 2 10.2533 24.4631 24.4454 -1.74609 0.935135 -0.400322 -0.38301 -0.0532221 0.103763
53 1 46.6662 31.661 41.4077 0.0801247 -0.335641 0.183637 0.414417 -0.35375 -0.226004
54 1 13.4116 3.40137 49.5866 1.23638 -1.02137 2.13542 0.103481 -0.325592 0.0779433
55 1 19.8483 5.64846 5.68717 0.134418 3.50968 1.44855 0.73981 0.220064 0.0498468
56 1 36.2641 11.1435 9.1998 2.90769 1.91586 2.11655 -0.501402 0.288381 0.640742
57 2 3.75639 55.2254 41.5551 -1.24527 0.50995 -2.29299 0.428366 0.420053 0.0358854
58 2 44.1608 36.7818 29.9318 0.98137 -2.7587 -1.17995 -0.432202 -0.523828 -0.491192
59 1 6.51207 2.13884 23.3904 -0.0815264 -3.53807 -0.654787 0.401024 -0.693891 -0.567936
60 2 29.4894 40.0105 27.7247 1.79665 -0.740757 -1.38017 -0.514845 0.264155 0.454342
61 2 27.6057 45.0566 29.1093 -3.24672 -1.72722 -1.73794 -0.134032 -0.398479 -0.143043
62 1 12.8369 11.7187 8.18991 0.998201 0.87061 -0.142387 0.680203 0.352846 -0.642975
63 2 7.29135 24.7836 15.02 -0.8415 -1.48138 1.11867 -0.401379 0.867819 0.022991
64 1 26.947 0.620682 4.33705 -2.97833 0.0865484 -7.56198e-04 -0.136605 0.0497683 0.234473
65 2 55.7333 0.266827 53.9977 -2.43393 -3.02535 3.3625 -0.488897 0.289918 -0.0782276
66 1 4.32857 6.40238 8.24024 -1.90167 1.93388 -2.76474 -0.19518 0.633522 0.134185
67 2 23.3869 1.13776 11.6722 -0.73178 1.1736 -0.876201 -0.0105193 0.581054 0.473245
68 1 48.5637 45.0586 38.1471 2.3358 -3.02512 3.00855 -0.335355 -0.568832 -0.0225578
69 2 24.2499 18.3234 48.6538 0.131896 -0.322709 -0.317682 0.174558 -0.107493 -0.180328
70 2 6.91207 32.629 55.3613 -1.03905 1.79561 2.10185 -0.447938 -0.992515 0.48585
71 2 41.9009 22.7066 49.1618 1.66798 -1.602 -2.37434 -0.00563376 0.107784 -0.175317
72 2 6.79783 0.127694 49.6099 1.7433 -3.40588 0.582369 -0.209452 -1.04492 -0.643617
73 1 48.5676 37.5216 19.4004 2.90116 0.808124 -1.03382 0.822661 0.386624 0.4692
74 1 25.2569 3.75673 24.662 1.5281 -1.57039 -0.5057 0.0267205 -0.0963318 -0.330979
75 1 53.6876 0.722726 23.6914 0.720016 -0.468184 2.72526 0.566642 -0.273007 -0.0438631
76 1 55.8681 6.52139 42.1036 1.54527 -0.715334 -0.549292 -0.454247 -0.169641 0.321613
77 2 52.5188 56.395 13.9079 0.0750735 2.40181 -1.93002 0.0553489 0.16185 -0.257966
78 2 3.49163 48.3975 27.3206 0.187534 0.359688 -0.360254 0.17686 0.674227 0.123394
79 2 25.1978 -1.39236 44.3031 0.984617 1.92228 -0.0500771 -0.356679 -0.278951 -0.436975
80 2 21.804 3.03239 5.21915 -2.41353 1.05647 -0.867337 -0.754691 -0.196428 0.592692
81 2 30.3247 21.946 17.3361 -0.206344 -0.339483 -0.787464 -0.363604 0.614471 0.149525
82 2 36.3567 21.7461 47.1077 1.42868 -1.19496 -2.69672 -0.0657836 -0.334262 -0.259323
83 1 50.4048 19.877 4.24724 -2.39738 -1.34128 2.56795 0.13929 -0.676545 -0.202725
84 1 43.2329 35.2432 47.7957 -0.71924 -0.677485 -1.20915 -0.280793 0.285789 -0.383093
85 2 7.66437 20.5662 51.9599 0.744613 0.862182 -3.65867 0.0313757 0.939794 -0.07183
86 1 43.4995 44.5065 43.1388 3.8708 5.83517 -4.13167 -0.0504621 0.148316 -0.0626455
87 1 42.77 24.6373 47.3198 0.089959 -1.24011 2.13654 -0.0752797 -0.485739 0.0478439
88 1 46.161 29.331 42.2011 1.67335 1.73424 -0.460369 -0.247001 -0.615054 0.218409
89 2 44.5579 41.796 43.5935 0.222337 1.67449 1.12801 -0.150316 -0.432715 -0.187059
90 2 27.1762 23.3555 -0.97689 2.12422 0.504103 0.0790411 -0.311971 0.324552 0.0230585
91 2 12.3546 52.1538 46.462 -1.02456 1.24053 0.331801 0.204958 -0.0148417 0.330085
92 2 19.4431 3.18834 24.9499 -2.22495 -0.401517 -0.899238 0.351831 -0.0756374 -0.811521
93 2 25.8782 34.9895 21.1361 -2.27914 0.853661 -1.32913 0.0247731 -0.188657 -0.474708
94 1 34.0346 53.9264 7.96105 1.04165 -2.68909 1.55589 -0.334193 -0.215541 0.185576
95 2 36.9171 29.2115 56.2078 -1.2594 -2.70787 0.353782 -0.468111 0.411191 -0.201599
96 1 22.1511 9.81429 10.0513 0.018837 1.27802 -0.719157 -0.275442 -0.129177 -0.101919
97 1 18.997 30.8147 6.35262 1.161 1.29441 -1.51866 -0.945486 0.032639 -0.0777531
98 1 7.52912 51.2744 26.2644 1.88736 1.8149 1.18576 -0.0441679 0.0360981 -0.0472466
99 2 7.78766 28.2373 16.1216 2.98695 -0.164222 0.443226 0.254503 -0.234818 0.396333
100 2 7.20354 3.0249 30.4521 -1.71532 1.09211 0.44201 0.221093 0.264364 0.125683
101 1 3.64299 26.224 57.1569 -2.82998 -0.893744 -1.46184 0.426901 -0.45489 -0.137106
102 1 15.4754 13.0198 40.0057 -2.00624 -1.64867 4.96104 -0.369867 -0.346681 -0.0748636
103 2 12.9208 2.39101 54.4584 -3.67307 0.234898 1.48915 0.126764 -0.906058 0.0364769
104 2 0.950932 28.6893 15.1326 1.73073 1.08582 -2.72592 0.410601 0.383118 0.196323
105 2 33.9602 32.5577 4.61782 -1.879 2.42247 -0.610126 0.0186261 -0.538548 0.558196
106 2 21.2724 44.5505 0.887056 -3.40236 -1.36147 1.55649 0.170247 0.319344 0.279898
107 1 54.1468 12.1016 2.17708 3.58863 -0.292819 1.823 0.359701 0.375353 0.338899
108 1 26.6937 51.8131 8.20882 -1.81264 -4.33685 2.71032 0.12188 -0.526083 -0.256159
109 2 28.9169 -1.44324 20.3172 0.0451508 2.27767 -0.556528 0.131872 -0.26212 0.0229567
110 2 20.2173 55.3894 31.2163 -2.65175 -2.28086 -0.643531 0.0219365 -0.798214 0.359189
111 1 21.8621 9.61753 14.6747 -3.23952 1.57084 0.952172 -0.369533 -0.1478 0.373667
112 1 48.3669 55.5468 50.2025 1.24941 2.86509 0.0914121 -0.165768 -0.778121 -0.00434987
113 2 48.154 29.4829 33.5083 0.84839 -1.0107 3.01251 -0.0915478 -0.478394 -0.0952713
114 1 53.6905 47.3132 20.6738 -3.60628 -1.25503 -2.29525 -0.0787855 -0.0579086 -0.0190745
115 1 56.0332 56.5204 38.1404 -0.32859 1.62301 -0.142653 0.36612 0.00447863 0.337564
116 2 33.7646 42.9223 13.1699 4.62959 -0.183944 -0.527438 0.246514 -0.382795 0.0344066
117 1 17.2844 55.4747 14.1277 3.52195 -2.67042 1.1487 0.348919 -0.280566 0.410374
118 2 4.25657 32.3794 20.6729 -0.447321 -3.27088 0.835439 -0.109064 0.184502 0.160709
119 1 38.5123 8.13969 50.0055 -2.09635 -2.88705 0.521452 -0.251948 0.30673 -0.213028
120 2 33.5492 32.3851 35.9567 -1.85707 1.63439 -0.900571 -0.00590466 0.0861939 -0.348703
121 1 16.8274 36.4069 36.8804 -0.700521 1.92771 -1.80951 -0.771289 0.259861 -0.112793
122 2 1.32118 17.7483 53.1769 1.32969 -1.78067 2.80632 -0.0758354 -0.202194 0.387998
123 2 11.4786 10.9879 16.6828 0.227254 -1.77699 -0.186442 -0.106512 0.254589 -0.18634
124 2 49.0346 54.5896 26.4007 0.777139 0.37332 1.15493 0.0775325 0.278532 -0.0488242
125 2 48.9559 10.4368 10.7897 2.39305 -1.47696 -1.21089 -0.197115 -0.32938 0.632478
126 2 54.4262 13.0624 45.2564 -1.53196 1.11665 2.38352 -0.370672 -0.920886 0.27519
127 1 1.77957 50.2502 23.0973 -2.02818 -2.98154 -1.35585 -0.45469 0.399719 -0.516247
128 2 39.4489 49.3487 39.1821 -0.122204 -0.919143 -0.341098 0.190221 -0.0976562 -0.715028
129 2 31.5065 19.1595 35.7287 -2.82725 4.3367 1.00257 -0.607376 0.100261 0.223437
130 1 13.5827 7.89032 41.4277 1.7241 2.07308 -0.784292 0.212091 0.0712474 0.396108
131 2 9.44856 35.9227 11.5811 0.0669596 -0.448739 1.74319 0.105975 0.683097 0.243605
132 2 22.1741 10.0037 -1.10636 -1.28533 -3.71727 -0.730106 -0.141437 0.646061 -0.101432
133 2 43.9451 39.9447 32.9604 -0.563874 -0.723614 0.79135 -0.464354 0.396213 0.0116627
134 1 47.2417 38.0504 10.5571 -1.0768 1.61452 0.0694723 0.380026 -0.0634861 0.143443
135 1 4.18072 8.50247 34.9565 2.87417 1.06186 -2.96781 0.042447 0.346181 -0.326039
136 2 56.0975 27.3631 46.6789 -1.14423 0.457507 0.0401121 -0.0962156 0.0093692 0.0312727
137 1 23.6762 5.73713 14.3902 -0.02407 2.2962 -0.728765 -0.58646 -0.288353 -0.206905
138 1 13.4855 29.9995 51.5709 0.72906 0.936373 -0.713128 -0.228024 0.0998936 -0.0667031
139 2 39.4491 57.238 30.3878 -1.71252 0.429339 0.70322 0.149991 0.127753 -0.164242
140 1 14.4018 5.68986 40.4593 -3.53316 2.33549 4.32204 0.493695 -0.054564 0.213503
141 1 47.1631 7.39132 23.643 -0.109977 -0.0164381 0.400981 0.250287 0.285239 0.126408
142 2 23.7628 31.2126 53.6414 0.869892 -0.254789 2.43915 -0.00914932 0.441446 -0.215847
143 2 4.10012 9.12039 10.2015 0.643946 2.00117 2.53411 -0.112824 -0.224219 -0.0169614
144 2 22.1754 19.5041 53.7273 -1.26636 1.84222 3.75526 -0.452779 -0.195199 0.871906
145 1 55.2161 42.7593 49.4766 0.558192 -0.286703 0.683576 -0.76684 -0.0288961 -0.150892
146 1 50.2566 34.2484 8.86791 -1.72451 1.99946 -2.21444 -0.323604 0.00621626 0.0437739
147 2 20.0669 52.6353 9.78815 -2.61326 0.78165 1.54539 -1.66422e-04 0.478855 0.0533408
148 2 47.3308 34.9367 45.2847 0.719156 1.05904 0.540019 0.283738 0.116279 0.465731
149 1 13.0887 14.4026 33.4527 1.52271 0.90678 1.55941 -0.290116 0.305768 -0.686792
150 2 23.077 57.3005 41.429 0.454713 1.36313 -0.345372 -0.116804 0.913292 0.619372
151 2 12.6185 18.8037 49.0615 1.3106 2.57565 1.88891 0.179661 0.153955 -0.648925
152 2 7.97694 22.0551 24.7814 0.91171 -1.99857 0.681719 0.533304 0.573859 -0.679372
153 2 48.9613 29.5604 26.0665 -3.86687 -2.94113 2.08286 -0.444178 0.155315 -0.753698
154 1 32.4514 1.83634 6.65934 2.60112 0.891798 -1.04521 -0.227494 0.63659 0.516085
155 1 23.7089 9.49776 17.2119 1.82369 -1.75999 3.12262 0.273936 -0.211242 -0.212971
156 2 29.8701 42.96 50.194 -0.264234 -2.70577 0.0840554 -0.736608 -0.228144 -0.211831
157 2 55.0031 -1.45103 12.1772 2.78493 -0.511201 0.401368 -0.451019 -0.0354962 0.138792
158 2 10.9367 43.7685 55.5863 -2.05959 -0.649032 0.465531 0.197344 0.0270694 -0.0474186
159 2 19.6889 23.9376 45.7776 -0.391576 -1.77896 -2.27829 -0.345343 -0.308341 -0.359638
160 2 40.7327 34.7674 17.5236 -0.441265 1.23393 -1.06801 -0.0318012 0.439391 0.219384
161 2 38.1909 8.37722 38.0528 -0.0240336 -0.790443 -1.72362 0.174952 -0.0165351 0.0765227
162 1 18.5697 25.6945 16.7009 1.46255 1.07488 0.564633 0.0346377 -0.127472 0.0229803
163 2 16.3203 49.9898 56.2188 1.04724 0.550617 1.18005 0.37134 0.152616 -0.396307
164 2 49.7669 6.67808 6.38666 -0.115331 -3.24246 -9.66509e-04 -0.306298 -0.461118 -0.0430863
165 1 49.1802 27.147 5.80583 0.328317 2.6182 0.124181 0.297668 0.542422 -0.0954823
166 1 42.9231 11.2467 45.0946 0.755255 2.92302 -2.49647 0.280498 0.170741 -0.673381
167 1 55.4416 35.7926 5.42966 0.113591 -0.929742 -5.07656 0.388053 -0.0753789 -0.186274
168 2 26.3615 2.3028 46.3972 2.56383 0.27476 -0.89666 0.0691863 -0.767284 0.0281059
169 1 17.6523 25.1094 26.7221 -1.66569 -3.28305 -2.23304 -0.301282 0.236185 0.00362198
170 2 29.0085 27.0531 17.5054 3.11728 -0.715581 0.794481 -0.0773656 -0.567102 -0.625467
171 1 23.2195 27.5176 32.6211 -1.55252 -1.45808 -0.27952 0.07244 0.101522 -0.139395
172 2 1.01964 37.536 0.155155 1.09949 -1.04659 3.80164 -0.461108 -0.200045 0.0755279
173 2 54.398 0.499383 14.6034 2.08425 1.36582 -1.17743 -0.323846 -0.217869 -0.472515
174 1 14.8954 18.1767 33.6943 1.50525 -0.535845 -2.27701 -0.282735 -0.330038 -0.0188924
175 1 55.2343 13.0418 4.11344 0.79895 -1.75864 0.436254 0.57733 -0.138548 0.2206
176 1 31.8827 53.0514 24.6712 0.112682 -2.49315 -0.405805 -0.113572 -0.144491 0.145228
177 1 10.0412 8.80144 15.433 1.46262 0.256883 -0.357035 0.644217 -0.542261 -0.0318402
178 2 35.8109 0.374783 -0.393838 -4.58842 0.711934 -0.981167 -0.24277 -0.298894 7.03672e-05
179 1 7.59789 2.59868 49.455 1.90253 -0.936496 -0.304221 0.0478562 0.44845 0.224641
180 2 29.5241 52.7504 8.5002 -0.180404 1.05357 -2.4596 0.308508 -0.520659 -0.208448
181 1 22.9418 8.83091 22.6642 1.92284 -2.31292 0.833236 -0.367953 -0.508236 0.34673
182 1 52.2276 43.4942 30.1669 -2.5585 2.06351 -1.4711 -0.366428 0.0879139 0.21076
183 2 47.4058 10.8221 21.8028 1.32716 0.038053 -1.72888 0.400719 -0.398464 -0.775928
184 1 19.0171 44.7032 24.4358 -2.07602 -0.412123 -1.94812 0.00372228 0.0657667 0.382352
185 1 30.0338 4.57176 45.2162 3.74 1.77164 -2.4567 -0.148061 0.0445282 -0.40399
186 1 56.5013 4.82619 31.6142 1.3655 0.745921 1.46134 0.0150967 -0.0968078 -0.295621
187 1 44.4072 25.7428 3.82906 -1.40523 -0.394061 3.52812 -0.87117 0.152965 0.0351239
188 2 23.9085 46.0418 2.66305 -0.859951 0.108184 3.10206 -0.0580138 -0.0488223 -0.291929
189 2 -1.56 52.0858 11.5813 1.15397 -0.986295 0.279928 0.594698 0.256622 -0.43627
190 1 17.542 42.7556 46.4363 -1.16495 1.19306 -4.30214 0.248575 -0.37715 0.0462672
191 2 50.8853 42.9647 32.3826 0.221503 -0.887262 -0.215112 0.226734 -0.237534 -0.537393
192 2 20.4498 47.038 38.6201 -0.625992 3.90058 -0.642234 0.557889 0.134046 -0.484911
193 1 0.911052 26.2386 49.5767 1.04066 -2.35928 0.356482 0.559629 0.480702 -0.13573
194 1 13.4549 23.2797 26.216 0.518644 -0.349572 0.123454 0.535563 -0.594387 -0.217603
195 2 14.3077 -1.46084 -0.699313 -0.57589 -0.398916 -3.50105 -0.146964 0.324635 0.765614
196 2 45.1309 4.66226 11.6813 -0.470207 -1.1076 -0.686546 0.393246 0.229831 0.574474
197 1 24.5037 9.93904 39.1749 0.246833 0.51809 3.88006 0.309612 -0.124461 -0.337593
198 2 8.81174 17.4622 5.26338 -0.128297 1.56487 0.644265 -0.444498 -0.345549 -0.103573
199 2 0.107326 16.249 31.3551 1.11997 -0.358489 -0.0288016 0.20012 -0.101373 0.70477
200 2 41.8601 50.2455 28.0962 1.07319 -1.11659 -1.31413 0.878256 0.769232 0.130954
201 2 41.0978 37.4862 40.1544 2.56147 2.7963 3.08817 0.779342 0.103726 0.143558
202 2 20.302 27.5602 3.1418 0.312459 0.869916 1.88485 0.185915 -0.301998 -0.217569
203 1 21.9774 9.19419 5.7446 0.697236 -2.99678 1.84778 -0.413032 0.222706 0.35888
204 1 12.3171 44.4691 6.39342 1.40162 -1.37586 0.674231 0.195833 0.0677427 -0.145051
205 1 45.6161 30.8543 3.46431 -0.790251 -1.06355 -0.930258 -0.144349 -0.212395 0.601238
206 1 52.8964 45.1409 25.6726 -1.09787 -2.43711 2.68032 0.752018 -0.416754 -0.0230487
207 1 21.4992 53.3025 13.0395 0.458116 2.14217 -1.02273 -0.165273 -0.0677637 0.638217
208 1 23.6973 41.0229 -0.229515 -4.09677 -0.944461 -0.327944 0.287067 0.507229 0.317964
209 2 36.0274 47.971 17.9642 -0.83807 -1.70101 -1.51502 0.348899 -0.464345 -0.325569
210 2 34.3969 5.708 40.7233 0.990038 0.770693 0.169733 -0.686819 0.232988 0.946243
211 2 20.3355 1.58298 11.4471 -0.536036 -0.0113609 0.851337 -0.657591 0.342769 0.1224
212 2 -0.439846 21.3041 27.2546 0.841301 1.47971 2.41167 -0.216561 0.680481 -0.282446
213 2 1.25995 45.836 17.4602 0.309769 0.518738 -1.17676 -0.601503 0.44485 -0.216747
214 2 23.6427 25.4052 27.37 0.297286 -1.10337 0.671275 -0.0661078 -0.490832 -0.179836
215 1 12.421 12.6067 19.0315 -0.456173 1.71718 3.39382 -0.331518 -0.170039 -0.289374
216 1 2.42365 52.064 43.5693 0.237697 2.65487 1.10452 0.438102 0.0918292 -0.115337
217 2 24.6955 2.68177 27.4151 1.42906 -0.172069 0.187922 0.0244647 0.0231877 0.455663
218 2 46.6936 42.179 14.4955 -0.187167 -0.0724672 -1.61622 0.207103 0.0874206 0.390737
219 2 30.5685 0.0238562 7.95514 -3.41699 -0.152299 0.52219 -0.184527 -0.325596 -0.51557
220 1 22.5371 17.9994 2.58616 -0.014655 -2.87764 3.40113 -0.363346 0.187518 0.134665
221 1 23.8558 0.421932 14.362 1.00221 0.363898 -1.01508 0.453623 -0.0625563 0.048718
222 1 50.9828 26.7305 9.85321 3.1057 -1.81811 -0.681555 0.473162 0.324858 0.161154
223 1 19.844 4.3856 -0.364463 -1.39367 0.338445 -2.41852 0.49381 0.135383 -0.0245079
224 1 55.651 57.0118 5.83675 -2.09236 -1.47724 2.04757 -0.0788722 -0.0705828 -0.423226
225 2 32.2206 3.324 49.5456 -0.662713 -0.0605381 0.155745 0.48222 0.407643 -0.115004
226 2 9.86453 2.72858 26.5525 -0.181377 1.65454 0.883732 0.101169 0.110182 -0.139341
227 1 29.3417 17.634 34.4574 -0.163609 -0.707732 1.58302 -0.168191 -0.595301 0.712337
228 1 37.4759 2.18734 54.369 -1.23676 -1.49494 1.9003 -0.362414 0.152927 0.165329
229 1 54.6053 0.198323 26.6369 -0.148993 3.46307 0.901071 -0.585524 -0.248953 -0.201033
230 1 14.0334 1.7752 24.919 -0.895196 -0.294181 1.04681 0.178512 0.660665 -0.0500118
231 2 55.6896 40.4468 28.846 -1.96839 0.0581461 -1.5112 -0.357472 -0.0823127 -0.333532
232 2 36.8112 38.15 15.4576 0.517218 -0.863041 -1.12905 -0.036355 -0.115588 -0.0795759
233 2 26.8482 30.1743 10.4838 -0.0792146 1.46278 -1.34933 -0.190962 -0.183495 -0.352991
234 1 8.47221 17.2087 2.35579 3.48796 2.44657 0.728226 0.116306 0.519994 0.195602
235 1 19.2263 53.0664 2.67724 1.38134 -1.33582 2.05019 -0.170363 0.0449733 -0.0894555
236 2 1.04463 11.8122 -0.902566 -0.480508 -2.3017 0.367318 -1.17326 -1.12792 0.60601
237 1 2.95209 18.3077 51.1668 -0.197021 -1.64389 -1.50583 -0.137152 0.439915 -0.228175
238 1 30.8011 48.2252 47.7817 1.06105 5.50429 -2.98942 0.756659 0.29553 -0.846658
239 2 -1.442 19.2494 46.1607 3.04254 1.01728 1.90841 0.587513 -0.343908 0.0235072
240 2 28.5587 49.764 8.54009 -2.23544 1.22897 -2.00504 0.0475042 0.0720322 -0.11953
241 2 51.9011 6.5984 36.5695 -1.47141 2.59189 0.69208 0.309528 -0.30684 -0.666351
242 2 41.3065 56.716 46.8853 0.114375 -0.0877367 -0.5205 -0.37317 0.0618859 0.0367804
243 1 10.2513 55.7609 41.222 2.67242 -1.55529 2.96292 -0.566369 -0.309136 0.27301
244 1 37.9355 46.7615 30.7094 0.325855 0.174516 -1.05588 0.33509 -0.299333 -0.723825
245 1 16.5317 21.834 12.3835 0.234767 0.647897 -1.85185 0.208099 0.469073 -0.46051
246 2 25.9744 53.6277 20.2404 -2.76112 -2.13275 -0.412043 0.199344 -0.408343 -0.253885
247 1 47.4875 34.4609 39.0878 -0.393277 0.513362 2.30689 0.212721 -0.751241 -0.449959
248 1 14.2673 3.07591 1.31782 2.9173 -2.39595 -0.627059 0.0804876 0.264647 0.426077
249 2 13.2026 14.1735 45.9793 -1.71855 1.58085 1.33275 0.122363 -0.809746 -0.216946
250 2 1.75464 -0.144916 12.004 -0.386285 3.41833 0.197525 -0.171614 0.094074 0.250232
251 1 15.9838 55.7305 2.40082 0.967107 1.30324 -0.196633 0.734595 0.518553 0.543535
252 2 14.3023 16.5932 15.9253 -2.78594 -1.04252 -2.57887 -0.201481 -0.385368 0.174408
253 1 9.6245 23.6253 43.9646 0.893899 -1.31655 3.18301 0.210441 0.443572 -0.172769
254 1 0.434235 49.3722 5.11585 2.57071 0.790423 -1.07307 -0.0301642 -0.648649 0.328768
255 2 19.4104 42.263 31.7442 0.622873 0.0715314 -0.104036 -0.709762 -0.383363 0.288782
256 1 25.9247 54.9906 44.3221 4.33872 0.124715 -0.503024 -0.0738932 -0.106724 -0.302775
257 1 14.4557 34.9074 26.1475 2.73725 -2.44102 -0.200013 0.593643 -0.296977 0.288836
258 1 50.486 50.1375 17.3071 1.1125 -1.44987 3.07948 0.323481 -0.0939098 0.138607
259 2 0.921536 0.312168 49.2863 2.08283 -1.75647 2.31027 -0.034199 -0.112967 0.352128
260 2 42.6604 51.3021 4.8601 -1.74424 2.28053 0.463252 0.0294083 -0.044382 0.255807
261 2 28.3347 3.88312 33.6133 3.17613 -0.725112 -1.3626 -0.647885 -0.127822 0.60975
262 2 29.4017 16.5751 -1.3476 1.06934 -3.88059 2.56956 0.882327 -0.29325 -0.0560004
263 1 25.8636 23.3947 19.5062 -0.451173 0.106266 0.884213 -0.28007 0.298861 -0.909901
264 1 47.6068 35.6386 10.9768 2.50621 4.83979 -1.89546 0.0981342 0.321079 0.380568
265 1 15.6478 47.038 33.2508 -0.504442 -2.55957 -5.0195 0.665206 0.308109 0.59888
266 2 13.5408 4.33813 10.4958 0.750466 0.0322606 0.451157 0.402436 -0.00403513 -0.218395
267 2 9.63487 24.2559 40.9933 -1.25861 -1.2129 0.570805 0.143725 -0.0426709 -0.306295
268 1 12.7597 20.2361 29.7294 2.44339 1.93239 -2.22412 -0.053917 -0.595474 0.780086
269 2 4.76469 5.26196 57.1355 1.92967 2.29707 -1.11718 -0.269678 0.642871 -0.0576119
270 2 54.4257 47.244 40.1461 -0.680483 -2.27412 -2.64786 -0.521151 0.879948 0.302731
271 2 45.259 18.8291 22.5675 -2.9335 2.57576 -1.37058 0.357267 -0.0965356 0.31691
272 1 4.97776 34.1671 23.0343 -2.89804 -2.01281 0.75788 0.297986 -0.602159 -0.349723
273 1 24.5492 14.1041 56.6887 4.06677 1.2878 -2.35534 -0.0822967 0.202401 -0.0869275
274 1 48.6046 10.4002 38.5172 -0.604929 0.658268 -1.13334 0.479779 -0.346934 0.222291
275 1 20.9907 7.38336 46.1317 2.7378 -1.22438 1.17865 0.288956 -0.134775 -0.213104
276 1 8.18279 33.5755 35.8358 1.21746 -2.05444 0.237151 -0.418297 -0.416008 0.205111
277 2 8.04466 27.0065 37.0156 0.0176559 0.910361 0.22878 -0.114332 -0.0422557 -0.452824
278 2 40.2552 12.2863 11.2977 2.42787 4.36868 -3.14707 -0.0618322 -0.0974645 -0.325032
279 1 23.6584 41.9033 7.93728 0.744815 -0.795993 -4.62796 -0.350469 -0.0174213 0.350264
280 1 37.1959 47.4377 46.2728 -0.897922 0.580219 1.86611 0.0640281 -0.216706 -0.255394
281 2 50.6474 22.0936 5.41831 -1.15693 0.74007 0.965985 -0.176507 0.703574 0.357246
282 1 49.9378 6.49537 53.3997 0.110237 2.15894 1.20903 -0.440819 -0.263005 -0.584638
283 1 7.30321 1.9554 9.72362 -1.19803 0.711551 3.28631 0.0877236 0.0322434 0.205295
284 2 41.4579 32.2583 29.2368 2.74725 -2.2117 3.57712 0.38618 -0.221181 -0.263298
285 1 34.1902 13.7446 38.7673 0.950812 1.90515 0.523639 0.196351 0.567665 -0.0221332
286 2 -0.101697 45.9133 0.679747 -0.985196 -0.306068 -2.16961 -0.203467 -0.0526192 0.579803
287 1 27.1039 51.903 53.3975 0.138252 -1.81807 -0.670487 -0.593357 0.250901 0.0560198
288 1 11.8862 23.9505 44.955 -0.499139 0.319843 1.10767 0.348062 -0.130172 -0.0591268
289 1 -1.09839 14.4382 24.5042 -3.53843 1.02573 0.716627 0.600253 0.107268 -0.602342
290 2 9.90387 3.95028 45.3881 0.196943 -1.34387 -1.85922 -0.360727 -0.259482 -0.18627
291 2 15.6768 27.3807 52.6863 0.858805 0.447471 1.04022 -0.0123359 0.471142 -0.282556
292 1 13.5627 16.186 48.028 2.39932 0.284349 1.16367 -0.751411 -0.0736042 -0.0244589
293 1 26.9288 52.4378 37.2571 -1.4865 1.78736 -3.77696 0.119219 0.409614 -0.421553
294 1 48.1003 26.1833 32.9278 0.548524 0.0980518 -4.58498 -0.488818 -0.453294 0.518241
295 2 48.1641 53.4733 15.9449 0.954324 -0.521242 -1.11644 -0.369714 0.457265 0.247907
296 1 49.5733 4.73882 26.9269 0.982039 -1.55391 -0.634568 0.095421 0.0937586 -0.0967385
297 1 48.8886 55.1392 10.7448 -2.97846 -2.22219 -1.41613 -0.0125439 -0.360767 -0.0528152
298 1 33.4928 39.9648 43.6927 -4.46492 -3.36945 -0.112253 -0.541687 -0.348109 0.327373
299 1 24.5228 40.2869 19.9692 -0.914881 -0.692895 -1.61766 0.479264 -0.292627 -0.314493
300 1 49.3282 39.085 23.742 -1.20431 0.273156 2.22617 0.328475 -0.122843 -0.39698
301 1 24.1215 19.3848 40.9784 -3.42549 0.270611 -0.254592 0.615519 0.283772 -0.391052
302 2 36.5823 31.8656 36.2809 1.07072 -3.0499 0.0758788 0.0980239 -0.154638 -0.381396
303 1 11.7698 3.64587 36.1275 -0.452958 1.77872 -2.70236 0.514496 -0.268981 0.0853709
304 1 0.786737 43.1532 25.0401 -4.06194 -2.10186 1.3787 0.0023019 0.224131 0.306968
305 1 4.6178 3.43581 -0.0305106 2.17598 -0.941604 -1.8299 0.0645408 -0.362826 0.643662
306 1 1.81421 54.6125 51.8985 -1.09531 -1.95872 -4.81305 -0.0423251 -0.25532 -0.202515
307 2 51.393 16.1182 41.7707 2.20995 -0.0578967 -4.1142 0.115259 -0.0654517 0.0679493
308 1 9.10374 -0.261189 36.4005 -0.0121256 2.4819 1.89112 0.713437 -0.199634 -0.0866756
309 1 1.49159 52.1725 15.0276 -0.226629 4.04615 -0.163685 -0.253286 0.00265036 0.268439
310 1 45.3863 47.0316 24.4636 -2.17106 -3.22608 -0.718274 -0.299806 0.230619 0.0264516
311 2 18.8191 21.9367 48.1398 -0.183461 0.351185 -2.91731 -0.260543 0.056248 -0.162445
312 2 6.78076 40.6582 5.94936 -0.876656 -0.995071 -0.0424418 0.0831913 0.188903 -0.0791061
313 1 55.2532 17.5202 7.39178 0.503353 -0.67005 -1.00787 -0.173495 -0.0252327 0.258976
314 1 56.0925 24.8955 47.6886 2.62705 2.22627 0.373581 -0.450331 -0.106446 0.00384468
315 2 32.5434 25.5186 48.7928 -2.29653 0.867723 -1.71141 0.281644 0.500922 0.35974
316 1 45.4808 32.1564 35.6536 1.10543 -0.962613 -0.520362 0.438725 -0.14217 0.202219
317 1 16.0821 41.5373 50.4079 2.54207 -3.90816 0.706834 0.197072 -0.0932461 -0.0948809
318 1 42.1345 -0.00228567 2.84444 1.02512 1.57226 0.725755 -0.42009 -0.00954782 -0.481655
319 2 44.7148 56.0535 32.5248 -1.66481 -1.00987 0.267879 0.509358 0.535131 0.0266763
320 1 53.5074 35.5554 36.8561 8.81872 2.83878 -0.35594 -0.0892242 0.551458 -0.512076
321 2 12.8556 22.6098 6.6123 -2.34545 1.54523 -1.61189 -0.330097 -0.359163 -0.452166
322 1 16.8852 37.3961 5.72141 2.37043 0.79416 0.995017 0.113225 0.360812 -0.228318
323 1 44.0082 7.89354 42.5363 -0.856092 1.64771 -0.679127 0.440659 0.0674833 0.347016
324 1 51.8879 38.0943 31.5996 2.7848 0.7674 -0.489586 -0.163668 0.322494 0.310805
325 1 14.7042 16.878 50.0859 -1.09842 1.88558 -2.54693 0.28202 0.416243 0.248847
326 2 39.6994 0.583877 4.08614 -0.139384 0.626523 -3.28255 0.200565 0.426059 0.454706
327 2 21.2614 -1.31574 38.8523 -1.28239 1.64907 0.466411 -0.1463 -0.0519389 0.325911
328 2 28.0647 51.5876 31.7089 0.724289 1.74292 -0.769651 0.128857 0.117742 0.425585
329 1 56.7962 8.82618 9.2694 3.13244 -3.69008 -2.27378 -0.0849163 0.257679 0.556338
330 2 40.991 20.9628 30.1618 -0.103475 0.0888119 -0.137624 -0.56052 -0.587417 -0.445701
331 1 11.4397 51.6298 3.23232 0.28092 -2.17188 -0.194336 -0.463133 -0.146708 0.543145
332 2 28.7143 18.5302 30.0255 2.36412 -0.413194 0.924236 0.249709 -0.285067 -0.25955
333 2 15.9567 52.7375 47.6428 1.84784 1.48312 -1.73606 -0.33912 -0.333071 0.0466192
334 2 45.0087 51.3215 50.8153 2.31965 1.94097 0.0525808 0.473001 0.0714595 -0.139817
335 2 8.80291 29.269 4.5166 0.0224916 1.32721 1.32068 0.487776 0.327431 0.415986
336 1 5.37018 50.5438 5.49464 0.835842 -0.527262 2.90732 0.0867339 -0.418694 -0.0716082
337 2 48.6083 29.7693 43.1694 -2.05933 1.32931 -1.48085 0.403132 -0.147304 0.0909904
338 2 30.4123 12.4061 23.169 0.564939 -3.99873 -0.13473 0.271712 0.320299 0.040681
339 2 4.61855 21.6264 56.1814 0.835371 -0.325097 0.464936 -0.290103 0.107055 0.340074
340 1 23.0382 0.394417 53.8595 1.98416 1.02054 1.18612 -0.119535 -0.106655 0.085078
341 1 43.9123 15.2421 38.2891 -0.801877 -1.78436 -2.31826 -0.196422 0.714844 -0.213027
342 2 0.433467 5.26808 25.793 0.787256 -0.853733 1.51444 0.0738384 0.114057 0.132995
343 1 18.9732 44.2895 13.0313 1.7364 0.94232 -2.08398 -0.552687 0.0691472 -0.0565948
344 2 29.2574 29.6304 12.8531 -0.995884 -0.126836 1.72103 0.291105 -0.135602 -0.838501
345 2 4.23479 34.3564 17.9956 -2.00176 -0.773868 1.1696 -0.0175387 0.323193 -0.0980551
346 1 52.684 34.3028 34.4567 1.67421 3.19258 1.39803 -0.64178 0.389146 0.160013