ITEM: TIMESTEP
22350006
ITEM: NUMBER OF ATOMS
11664
ITEM: BOX BOUNDS pp pp pp
-1.57571 57.3757
-1.57571 57.3757
-1.57571 57.3757
ITEM: ATOMS id type x y z vx vy vz fx fy fz
1 1 28.1374 33.517 0.671468 0.18608 -2.98049 -0.290792 0.620478 0.0452894 -0.148172
2 2 30.0323 5.63646 31.4104 -1.38069 -0.248201 -1.67608 -0.0256601 -0.485207 -0.127522
3 2 30.61 53.7915 15.8892 -0.538803 -0.153779 -1.851 -0.632255 -0.472228 -0.433807
4 1 40.1577 10.4039 8.77695 -2.75055 0.744101 -1.22409 0.00490286 -0.0989669 -0.123288
5 2 46.0242 55.7527 56.7218 0.998555 0.57113 1.71219 0.287117 -0.334976 0.192338
6 2 37.6773 28.6365 15.9188 -0.900631 0.273534 -0.104031 -0.0866136 0.795174 -0.160321
7 2 49.3455 10.7592 30.9843 1.07813 -5.21945 -0.775541 0.195905 -9.21509e-04 -0.606763
8 1 -0.239875 0.180926 19.2055 0.56882 -1.55073 3.74238 -0.285597 -0.603115 -0.308268
9 2 10.45 14.5178 5.44012 -0.0254058 -2.74308 -1.71007 0.0217633 -0.212047 -0.0858041
10 2 30.4043 54.0364 32.4354 -0.117591 -0.935286 2.17747 -0.536707 -0.200026 -0.20484
11 1 6.41059 30.6532 46.898 3.33277 -2.17878 -0.501462 0.565495 0.839915 -0.560494
12 1 46.7445 25.0836 40.4788 2.1514 -0.414696 1.89898 0.0963551 0.221927 -0.159626
13 2 50.4983 45.5014 13.4653 -2.23899 0.195959 0.933938 -0.508677 0.0627735 -0.30861
14 1 55.7226 27.5349 53.5061 -1.76452 -0.673024 -2.02339 0.240667 0.19372 -0.222345
15 1 -0.386477 43.4667 37.0053 3.17612 -4.00743 2.65297 0.590374 -0.0681598 0.218775
16 2 29.5676 43.2999 26.92 -0.196767 -0.847993 -2.01509 0.131857 0.06668 0.213495
17 2 54.215 39.7053 24.5983 -4.54826 3.53694 -1.63898 -0.0739185 0.0615912 0.0848469
18 1 8.41678 1.49198 47.2264 -1.61685 2.17391 0.370771 0.147231 -0.801107 -0.0827468
19 1 44.4104 17.6629 41.9255 -3.69606 -0.783106 -0.646914 -0.00516349 -0.178914 -0.310465
20 2 29.3885 15.3508 46.2703 0.585059 0.317656 -1.70087 0.179939 0.0118306 0.272216
21 2 16.2419 24.4165 5.06616 -0.910871 1.54372 1.39728 -0.306987 0.461266 -0.828243
22 2 12.2355 19.814 10.948 -1.15115 -0.206953 0.806067 0.121367 -0.0315043 0.0798798
23 2 10.4418 12.5143 56.347 1.21407 -1.6429 1.06322 0.326017 0.244234 -0.0519965
24 1 10.3654 30.7752 45.7673 -2.40926 2.08843 -0.113387 -0.19186 -0.700732 -0.175423
25 2 52.2632 41.1089 -1.28691 -0.00868832 1.61521 0.792286 0.194984 0.207469 -0.143928
26 2 12.9255 9.40656 46.4033 0.622453 0.33806 0.955669 -0.49182 0.154381 -0.254942
27 1 13.0967 2.99488 8.30616 1.32025 0.539869 -0.240285 0.704808 0.421931 -0.47691
28 1 28.9753 51.3137 15.7208 0.469507 0.119262 2.0165 1.01046 0.30128 0.353368
29 2 27.0039 38.5057 2.67247 0.414034 0.635739 0.286425 0.00120658 0.452075 0.660099
30 1 32.8088 31.0115 17.3227 -1.52448 -2.99522 -0.674647 0.857244 -0.113476 -0.242003
31 1 49.4222 32.3867 32.0449 -1.02107 1.42806 0.558642 0.103176 -0.875448 0.293164
32 1 38.6434 11.059 38.6552 -2.43527 0.746356 0.42287 0.220501 -0.701024 0.151417
33 2 25.3288 3.36349 12.2563 -1.364 0.470167 0.0135473 0.608507 -0.342082 0.271252
34 1 6.44336 30.7021 39.553 1.76031 -1.93249 -0.192289 0.135037 0.105778 -0.113191
35 1 33.4431 30.8972 54.6636 -2.39218 1.78917 0.148567 -0.704662 0.0461585 -0.340997
36 1 21.9101 8.01855 55.9663 -1.93912 0.362705 2.20722 0.111577 -0.162189 -0.496065
37 1 4.58165 57.3278 28.5557 0.970096 1.08169 -1.07236 -0.035263 -0.1566 -0.0724677
38 1 35.2297 53.1745 13.3262 -1.54228 -2.6872 -0.138801 -0.999167 -0.0476791 -0.217094
39 2 0.687305 15.006 -0.718484 2.05705 -1.01419 0.515265 -0.254857 0.16067 -0.0559022
40 2 34.129 44.0447 -1.03265 -0.974664 -0.244405 -0.310241 -0.486028 0.737063 -0.468584
41 1 41.7118 15.2224 29.0435 -0.968729 2.12988 0.1964 0.453436 0.170848 -0.275292
42 1 8.54545 53.8343 20.3392 0.245131 1.17699 0.53879 0.152736 0.0443334 0.0624411
43 1 10.3532 39.3342 15.0044 3.49342 -0.375432 1.09058 0.278729 -0.233722 0.19694
44 1 39.751 30.5889 15.6492 1.59981 -0.36978 0.162097 -0.564677 0.066082 -0.29295
45 2 1.03657 35.4574 7.36886 -0.0515622 0.668306 0.71831 0.588507 0.210623 0.475654
46 2 3.85287 30.3813 27.8534 2.07795 1.16886 -2.50634 0.247332 -0.0329348 -0.255425
47 2 4.94062 25.5135 12.994 -0.43962 1.28554 0.327903 0.0880626 -0.02104 0.583181
48 2 56.8154 50.067 51.9008 1.37524 -1.49766 -2.06746 0.224815 -0.628391 0.256686
49 1 23.6798 6.93308 0.17064 0.473429 -2.61354 -2.39701 0.10083 0.175754 -0.880656
50 2 23.5637 51.0035 17.1998 -1.51124 -0.670931 1.32401 0.225759 -0.709657 0.274748
51 1 11.7709 20.159 42.7874 -4.40487 3.89778 -2.22991 -0.279247 0.363108 -0.347711
52 2 10.2619 24.4572 24.4478 -1.48935 0.954152 -0.474893 -0.425684 -0.00563716 0.130561
53 1 46.6681 31.6622 41.4068 -0.289491 0.0201234 0.38972 0.395506 -0.427489 -0.225569
54 1 13.4036 3.40498 49.5755 1.13173 -0.690122 2.0497 0.125618 -0.398585 0.110126
55 1 19.849 5.6267 5.6772 -0.556499 3.23975 1.40162 0.775099 0.369657 0.0499935
56 1 36.2459 11.1317 9.18767 3.31707 1.64218 1.52579 -0.394104 0.310471 0.653519
57 2 3.76315 55.2248 41.5698 -1.52425 0.270504 -2.30831 0.450173 0.332111 0.011235
58 2 44.1552 36.7979 29.938 1.23845 -2.43416 -0.829484 -0.375348 -0.497614 -0.610522
59 1 6.51229 2.15641 23.3926 -0.450242 -2.84447 -0.1712 0.404613 -0.829658 -0.488611
60 2 29.4778 40.0162 27.7337 2.07806 -0.905962 -1.61599 -0.36605 0.25441 0.285618
61 2 27.6249 45.0673 29.1196 -3.14769 -1.46964 -1.65698 -0.179402 -0.411812 -0.111413
62 1 12.8318 11.7134 8.18772 0.398681 0.575524 0.455808 0.631933 0.293198 -0.663385
63 2 7.29432 24.794 15.0126 -0.589179 -2.02807 1.08848 -0.391754 0.852772 0.0720878
64 1 26.9643 0.618543 4.33615 -2.79574 0.0474547 -0.18824 -0.262489 0.0354903 0.177152
65 2 55.7487 0.283696 53.9791 -2.10176 -3.16896 3.38734 -0.55504 0.163099 0.0016343
66 1 4.33791 6.39119 8.25584 -1.70355 1.3256 -2.83238 -0.240064 0.700827 0.0147768
67 2 23.391 1.13014 11.6773 -0.725118 0.793951 -1.1536 -0.0106957 0.613342 0.399317
68 1 48.5501 45.0762 38.1297 2.63536 -2.47148 2.98579 -0.320105 -0.643418 0.0734222
69 2 24.2492 18.3245 48.6568 0.0347837 -0.227013 -0.21727 0.130767 -0.194539 -0.13462
70 2 6.91615 32.6167 55.3514 -0.774368 2.37878 1.77696 -0.383591 -0.836354 0.538237
71 2 41.8918 22.7161 49.1771 1.66117 -1.66077 -2.24819 0.0269149 0.0761605 -0.222295
72 2 6.78564 0.144329 49.6066 1.86397 -2.72249 0.984158 -0.168512 -1.10176 -0.618912
73 1 48.554 37.5185 19.4074 2.04957 0.403223 -1.48996 1.04493 0.503349 0.530083
74 1 25.2477 3.76433 24.6639 1.50818 -1.47512 -0.156206 0.016752 -0.113373 -0.432159
75 1 53.6866 0.723053 23.6748 0.154028 -0.221007 2.71894 0.672451 -0.267099 0.0572062
76 1 55.8594 6.52383 42.1086 1.9484 -0.552576 -0.821142 -0.429258 -0.18737 0.273633
77 2 52.52 56.3828 13.918 0.0426156 2.2832 -1.75171 0.0477519 0.21313 -0.303522
78 2 3.48926 48.398 27.3229 0.0898562 -0.0748756 -0.436755 0.129876 0.692093 0.117106
79 2 25.191 -1.40626 44.3037 1.18891 2.07792 0.203488 -0.28457 -0.209908 -0.361835
80 2 21.8166 3.02409 5.22401 -1.91991 1.17809 -1.22997 -0.795809 -0.185389 0.546264
81 2 30.3254 21.9488 17.3405 0.0384457 -0.71248 -0.874117 -0.404675 0.559095 0.121145
82 2 36.3485 21.7522 47.1246 1.44653 -0.960008 -2.4849 0.00953571 -0.406285 -0.407517
83 1 50.421 19.8826 4.22983 -2.50261 -0.696149 2.71655 0.0897909 -0.732545 -0.123859
84 1 43.2374 35.2485 47.8032 -0.467487 -0.920028 -0.862852 -0.270565 0.244341 -0.376812
85 2 7.65865 20.5623 51.9832 0.734384 0.266236 -3.55849 0.00225101 0.933208 -0.242109
86 1 43.4773 44.4731 43.1642 3.85171 5.60395 -4.01263 0.096343 0.361173 -0.202784
87 1 42.7701 24.6432 47.3084 0.168271 -0.797428 2.05054 -0.0967305 -0.484612 0.139133
88 1 46.1515 29.319 42.2054 1.85393 2.28629 -0.66661 -0.149106 -0.594426 0.233398
89 2 44.5574 41.786 43.5874 0.309608 1.94342 1.22806 -0.124691 -0.414151 -0.127151
90 2 27.1629 23.3528 -0.979112 2.26163 0.302529 0.0331987 -0.117085 0.309385 0.122839
91 2 12.3601 52.1479 46.4618 -1.15056 1.24267 0.132019 0.191467 0.0108282 0.296533
92 2 19.4565 3.18904 24.9536 -2.40153 -0.361952 -0.396666 0.202579 -0.048753 -0.770429
93 2 25.8917 34.9844 21.1427 -2.26171 0.970694 -1.01803 -0.080486 -0.17908 -0.502597
94 1 34.0279 53.9435 7.95098 1.32164 -2.44373 1.36888 -0.27935 -0.322948 0.225043
95 2 36.9243 29.2286 56.2071 -0.941165 -2.92529 0.482016 -0.534144 0.271046 -0.203373
96 1 22.1499 9.80516 10.0542 0.255755 1.36814 -0.627848 -0.242119 -0.0679781 -0.0988578
97 1 18.9868 30.8072 6.36011 2.01285 1.2574 -1.42555 -0.920737 0.0487747 -0.126255
98 1 7.51646 51.2651 26.2571 1.87697 1.77002 1.17742 0.0661877 0.0625522 0.0652972
99 2 7.76902 28.2379 16.1189 2.78027 -0.0332783 0.173278 0.396296 -0.175271 0.45294
100 2 7.21287 3.01731 30.4499 -1.81854 0.89549 0.349307 0.101473 0.353552 0.165817
101 1 3.65956 26.228 57.1672 -3.19992 -0.47253 -1.34542 0.382021 -0.468704 -0.117831
102 1 15.4856 13.0277 39.9766 -1.61609 -1.31374 4.95121 -0.488216 -0.389454 0.105118
103 2 12.9421 2.38626 54.4512 -3.71986 0.801891 1.45427 0.0181729 -0.87612 0.0746057
104 2 0.939677 28.6835 15.1484 1.42899 0.838752 -2.81471 0.540732 0.39464 0.0811077
105 2 33.9719 32.5424 4.62106 -1.86319 2.74465 -0.964816 -0.0691988 -0.474514 0.55566
106 2 21.2926 44.5604 0.876549 -3.47933 -1.56892 1.36306 0.0689827 0.333273 0.329166
107 1 54.128 12.1034 2.16551 3.19421 -0.627304 1.4657 0.505807 0.356876 0.443991
108 1 26.7048 51.839 8.19071 -1.91906 -3.72781 2.87515 0.1085 -0.815909 -0.097336
109 2 28.917 -1.45926 20.3201 -0.0319413 2.42642 -0.56566 0.110912 -0.205236 0.00608034
110 2 20.2327 55.4033 31.2211 -2.63229 -1.7533 -0.872602 -0.0829991 -0.859878 0.36062
111 1 21.8801 9.60652 14.6692 -2.86791 1.71105 0.593157 -0.444009 -0.158511 0.413686
112 1 48.3603 55.5292 50.2034 1.38254 3.56258 0.0765336 -0.127097 -0.749933 0.0352195
113 2 48.1501 29.4882 33.4905 0.896397 -0.693971 3.05193 -0.0590188 -0.518791 -0.0273466
114 1 53.7135 47.3218 20.6871 -3.49687 -1.16981 -2.27999 -0.161853 -0.129106 -0.0151002
115 1 56.038 56.5126 38.1429 -0.678607 1.57201 -0.44868 0.401159 0.107137 0.332854
116 2 33.7377 42.9236 13.1722 4.40362 0.067026 -0.543559 0.46533 -0.408194 0.0162245
117 1 17.2636 55.4916 14.1211 3.15216 -2.35187 0.761829 0.460811 -0.416309 0.438046
118 2 4.25751 32.3996 20.6677 -0.35959 -3.36125 0.722712 -0.169434 0.0990907 0.193575
119 1 38.5248 8.15652 50.0032 -1.83261 -3.12576 0.720941 -0.324766 0.216076 -0.223484
120 2 33.5607 32.3757 35.962 -1.83476 1.56092 -0.685189 -0.0657129 0.144739 -0.328583
121 1 16.8288 36.3966 36.8914 4.72305e-04 1.67378 -1.67589 -0.76318 0.297422 -0.180133
122 2 1.31136 17.7579 53.1625 1.3778 -1.62864 2.53375 -0.0741013 -0.276996 0.471039
123 2 11.476 10.998 16.6828 0.295275 -1.9151 -0.0592283 -0.107563 0.179026 -0.214198
124 2 49.0314 54.5896 26.3936 0.718075 0.199917 1.17086 0.108776 0.266155 -0.00112337
125 2 48.9425 10.4438 10.797 2.49106 -1.251 -1.57852 -0.110371 -0.38193 0.522349
126 2 54.4363 13.053 45.2438 -1.29244 1.70053 2.19494 -0.383171 -0.915487 0.31879
127 1 1.78883 50.2705 23.1037 -1.6165 -3.30167 -0.875706 -0.448185 0.300595 -0.536214
128 2 39.4508 49.3554 39.1835 -0.25815 -0.865918 0.104084 0.237254 -0.0699084 -0.686317
129 2 31.5224 19.1333 35.7236 -2.3964 4.19918 0.839422 -0.749227 0.331273 0.288217
130 1 13.5721 7.87678 41.4343 1.51037 2.01405 -1.12735 0.2565 0.0590841 0.355725
131 2 9.44721 35.9272 11.5702 -0.0144003 -0.872082 1.5554 0.150251 0.649473 0.347527
132 2 22.1812 10.026 -1.10407 -1.18147 -4.04708 -0.640699 -0.185246 0.387931 -0.181561
133 2 43.9486 39.9506 32.9561 -0.25115 -0.966918 0.744276 -0.520955 0.369074 0.135629
134 1 47.2504 38.0411 10.556 -1.42054 1.67158 -0.0696297 0.372133 -0.0615139 0.161571
135 1 4.16221 8.49591 34.9737 2.75913 0.687552 -2.56752 0.210212 0.474661 -0.554039
136 2 56.1059 27.3603 46.6799 -1.05827 0.454077 0.0063528 -0.174741 8.29942e-04 0.0736443
137 1 23.6745 5.72129 14.3931 0.495763 2.47563 -0.551308 -0.551341 -0.105276 -0.183205
138 1 13.4796 29.9943 51.5764 0.922181 0.828341 -0.632708 -0.194111 0.135984 -0.107927
139 2 39.4604 57.2375 30.3835 -1.79316 0.368389 0.794703 0.102686 0.0644688 -0.123216
140 1 14.4234 5.67434 40.4348 -3.93069 2.34801 4.08873 0.376187 0.0285082 0.299129
141 1 47.1657 7.39097 23.6406 -0.34997 -0.323173 0.280003 0.276012 0.386312 0.138472
142 2 23.7572 31.2152 53.6281 0.881326 -0.532006 2.53868 -0.0275961 0.428432 -0.0953431
143 2 4.09451 9.10678 10.1851 0.722155 2.12556 2.53694 -0.134095 -0.166546 0.00991006
144 2 22.1817 19.4923 53.7081 -0.96305 1.90296 3.14968 -0.504718 0.00789853 1.0284
145 1 55.2124 42.7619 49.4735 1.23835 -0.244951 0.801525 -0.7236 -0.06235 -0.106723
146 1 50.2675 34.2369 8.8801 -1.4227 1.95058 -2.25419 -0.337226 0.102508 0.0432044
147 2 20.082 52.6332 9.77785 -2.58393 0.456938 1.49264 -0.0921705 0.542047 0.11277
148 2 47.3283 34.931 45.2834 0.520237 0.970849 0.243393 0.342845 0.161844 0.46723
149 1 13.0778 14.3972 33.4417 1.80158 0.58804 2.21208 -0.319523 0.390675 -0.742033
150 2 23.0737 57.296 41.4331 0.530177 0.759934 -0.733683 -0.122089 0.981312 0.603232
151 2 12.6101 18.788 49.0504 1.1646 2.47034 2.21915 0.277722 0.179242 -0.391571
152 2 7.97123 22.0678 24.7759 0.56268 -2.34484 1.11252 0.564969 0.512895 -0.676371
153 2 48.985 29.5784 26.0525 -3.57109 -3.01396 2.49684 -0.486208 0.0725816 -0.53883
154 1 32.4355 1.83107 6.66565 2.76738 0.304634 -1.50446 -0.135587 0.646936 0.489264
155 1 23.6985 9.50654 17.1919 1.56132 -1.54913 3.28454 0.300997 -0.250386 -0.141672
156 2 29.8704 42.9768 50.1945 0.215054 -2.53672 0.211571 -0.770647 -0.304337 -0.188291
157 2 54.9873 -1.44994 12.174 3.03865 -0.472058 0.303216 -0.345575 -0.0880312 0.169161
158 2 10.9483 43.7735 55.5852 -2.17633 -0.669107 0.488841 0.169942 0.0358789 -0.0264358
159 2 19.6901 23.9474 45.7918 -0.178072 -1.56717 -2.05322 -0.327484 -0.358545 -0.348385
160 2 40.7361 34.7613 17.5297 -0.421503 0.954175 -1.17799 -0.0321469 0.440571 0.126706
161 2 38.192 8.38067 38.0639 -0.136552 -0.772512 -1.73911 0.179454 -0.041575 -0.0282197
162 1 18.5605 25.6875 16.697 1.4072 1.18443 0.518102 0.0871769 -0.112212 0.0795117
163 2 16.314 49.9882 56.2128 0.822466 0.448299 1.41709 0.333805 0.170821 -0.348926
164 2 49.7684 6.69528 6.38522 0.0792089 -2.9352 0.0173789 -0.306086 -0.505326 -0.0126273
165 1 49.1805 27.1328 5.80343 0.0383747 2.08199 0.20204 0.338215 0.633894 -0.0747129
166 1 42.9203 11.2286 45.1088 0.489809 2.76226 -1.86747 0.301462 0.18173 -0.703497
167 1 55.4437 35.7984 5.45803 -0.253081 -0.815929 -4.82029 0.412641 -0.174945 -0.37577
168 2 26.3462 2.29809 46.4038 2.48862 0.743362 -0.901798 0.169368 -0.704271 -0.00982438
169 1 17.6607 25.1296 26.7354 -1.34704 -3.47747 -2.21441 -0.397442 0.189237 -0.046124
170 2 28.9898 27.0562 17.4988 3.13867 -0.33648 1.18869 0.0146891 -0.626286 -0.614519
171 1 23.2287 27.5266 32.6227 -1.60779 -1.55783 -0.157517 0.0485244 0.117695 -0.127645
172 2 1.01045 37.5425 0.130772 1.39272 -0.916879 3.71924 -0.46141 -0.207913 0.18416
173 2 54.3866 0.489012 14.6087 2.26866 1.50828 -0.875119 -0.256443 -0.230706 -0.477806
174 1 14.8847 18.1784 33.7083 1.74982 -0.253636 -2.23747 -0.252118 -0.287987 -0.069306
175 1 55.2329 13.051 4.10982 0.263498 -1.61293 0.278694 0.59636 -0.180974 0.126161
176 1 31.882 53.0675 24.6738 0.214441 -2.32864 -0.557841 -0.110402 -0.215762 0.188613
177 1 10.0331 8.79721 15.4342 0.827645 0.738597 -0.318905 0.74707 -0.511835 -0.0521522
178 2 35.8384 0.368217 -0.389793 -4.3835 0.881593 -0.962203 -0.405501 -0.233915 -0.0593558
179 1 7.58536 2.60394 49.4588 1.83295 -1.36345 -0.504801 0.105012 0.483793 0.214392
180 2 29.5259 52.7447 8.51329 -0.398478 1.37756 -2.30625 0.37728 -0.497134 -0.274243
181 1 22.9291 8.84205 22.6598 2.1916 -1.77513 0.497403 -0.220674 -0.670154 0.386966
182 1 52.2435 43.4831 30.1764 -2.2008 1.94163 -1.62503 -0.417561 0.179122 0.125802
183 2 47.3999 10.82 21.8113 1.06246 0.290771 -1.23087 0.431323 -0.394912 -0.790164
184 1 19.029 44.707 24.4483 -2.05662 -0.480057 -2.27136 -0.0480507 0.0839768 0.324057
185 1 30.0112 4.55978 45.2309 3.85488 1.71603 -2.06263 -0.101958 0.077238 -0.459609
186 1 56.495 4.81997 31.6048 1.32915 0.837948 1.73026 0.0657572 -0.10375 -0.293332
187 1 44.4143 25.7454 3.80655 -0.616684 -0.489621 3.4355 -0.857459 0.0556042 0.16796
188 2 23.9133 46.0422 2.64229 -0.808235 0.138881 3.27107 -0.105012 -0.0473666 -0.238767
189 2 -1.56764 52.0937 11.5777 0.754035 -1.13457 0.542875 0.661912 0.208912 -0.390617
190 1 17.549 42.7484 46.4634 -1.36405 1.55629 -4.3119 0.188227 -0.417829 -0.0265334
191 2 50.8858 42.9705 32.3832 0.0973545 -0.722792 0.133312 0.165339 -0.279704 -0.558149
192 2 20.454 47.0162 38.6238 -0.932248 3.77113 -0.355216 0.399826 0.278692 -0.416944
193 1 0.904603 26.2538 49.5755 0.535572 -2.72046 0.497175 0.548928 0.310781 -0.170678
194 1 13.4523 23.2799 26.2146 0.0492415 0.177037 0.304695 0.495283 -0.56114 -0.181713
195 2 14.3099 -1.45974 -0.678728 -0.47059 -0.584811 -3.9552 -0.185318 0.257552 0.659738
196 2 45.1355 4.66781 11.6855 -0.681626 -1.22819 -1.02309 0.271396 0.150429 0.478323
197 1 24.5028 9.93443 39.1515 -0.0166181 0.637587 4.13104 0.267366 -0.136621 -0.210006
198 2 8.81042 17.4516 5.25789 0.169602 1.75438 0.698701 -0.486586 -0.251697 -0.0697204
199 2 0.0992265 16.2502 31.3568 0.98289 -0.288407 -0.464526 0.231381 -0.119249 0.664331
200 2 41.8562 50.2551 28.1043 0.505422 -1.59386 -1.38439 0.906239 0.733173 0.0895127
201 2 41.0848 37.4703 40.1369 2.05565 2.69439 2.96602 0.811516 0.216783 0.243055
202 2 20.3 27.5543 3.12848 0.175332 1.07963 2.02815 0.245442 -0.357177 -0.231984
203 1 21.9717 9.21151 5.7331 1.06781 -3.15429 1.51057 -0.399544 0.121905 0.381577
204 1 12.3082 44.4786 6.38763 1.20968 -1.43594 0.791452 0.22442 0.0626359 -0.1108
205 1 45.6216 30.8602 3.46988 -0.679309 -0.81544 -1.42764 -0.099392 -0.333336 0.486012
206 1 52.9066 45.1554 25.6564 -1.73818 -1.9959 2.67551 0.651176 -0.551768 0.0331147
207 1 21.4956 53.2911 13.0464 0.602405 2.15648 -1.58207 -0.149947 0.0352645 0.58573
208 1 23.7223 41.0306 -0.22862 -4.29586 -1.33418 -0.535439 0.146291 0.340095 0.13322
209 2 36.0336 47.9816 17.9721 -1.05684 -1.38491 -1.31533 0.338145 -0.527591 -0.303905
210 2 34.39 5.7024 40.7249 1.41865 0.624668 -0.426351 -0.659685 0.22532 0.92719
211 2 20.337 1.58202 11.4412 -0.124552 -0.231363 0.763401 -0.637941 0.350401 0.154651
212 2 -0.447124 21.2961 27.2395 0.980942 1.04157 2.57304 -0.221931 0.696649 -0.223633
213 2 1.25523 45.8349 17.4661 0.700218 0.240321 -1.02939 -0.626619 0.430896 -0.246994
214 2 23.6405 25.4107 27.3656 0.321551 -0.771984 0.763363 -0.00955597 -0.550514 -0.110061
215 1 12.4219 12.595 19.0099 -0.182703 1.85218 3.59921 -0.266941 -0.126108 -0.158871
216 1 2.42174 52.0499 43.5635 -0.128955 2.55617 1.16581 0.360418 0.1257 -0.0184224
217 2 24.6868 2.68124 27.4149 1.38483 -0.188001 -0.115733 0.116304 0.0270375 0.497565
218 2 46.6963 42.1805 14.5051 -0.310641 -0.129668 -1.8396 0.180533 0.0925523 0.310558
219 2 30.5887 0.0223594 7.94979 -3.23702 0.0588625 0.82874 -0.381629 -0.339476 -0.451809
220 1 22.5359 18.0165 2.56459 0.284478 -3.00869 3.23026 -0.290308 0.0977781 0.2389
221 1 23.8508 0.417807 14.3674 0.568715 0.427733 -1.05042 0.494463 -0.0770358 0.0293598
222 1 50.967 26.7422 9.85659 2.61353 -2.10884 -0.830243 0.603681 0.308728 0.165344
223 1 19.8532 4.38252 -0.351874 -1.82738 0.171225 -2.36679 0.45678 0.232109 -0.090565
224 1 55.6651 57.0223 5.82197 -2.00437 -1.39182 2.38938 -0.114321 -0.11825 -0.325503
225 2 32.2258 3.32358 49.5458 -0.980753 -0.330146 0.216062 0.517349 0.440558 -0.0754327
226 2 9.86466 2.71724 26.5468 -0.250565 1.58982 0.955669 0.116521 0.0938391 -0.0887434
227 1 29.3423 17.636 34.4503 -0.00912898 -0.162631 0.90396 -0.170063 -0.598205 0.775351
228 1 37.4829 2.19506 54.3598 -0.898296 -1.6206 1.73803 -0.380259 0.122314 0.189413
229 1 54.6063 0.175225 26.6308 0.394981 3.61279 1.08095 -0.605993 -0.0793093 -0.193366
230 1 14.0383 1.77708 24.9124 -1.0256 -0.880499 1.06975 0.106567 0.621497 -0.00134858
231 2 55.7025 40.4471 28.8544 -1.71782 0.108049 -1.25461 -0.430451 -0.075044 -0.467777
232 2 36.8086 38.1557 15.4634 0.560032 -0.78764 -1.05979 -0.0984308 -0.12309 -0.137841
233 2 26.8483 30.1653 10.4901 0.046388 1.57191 -1.11321 -0.203705 -0.159183 -0.3907
234 1 8.45047 17.1948 2.35033 3.31628 1.96792 0.546107 0.262121 0.528546 0.203686
235 1 19.217 53.0761 2.66322 1.52686 -1.36492 2.05235 -0.148933 0.0178456 0.0852565
236 2 1.04355 11.8229 -0.905419 0.265911 -1.58075 -0.0369146 -1.15793 -1.12593 0.656551
237 1 2.95133 18.3182 51.1767 -0.0901081 -2.04094 -1.27684 -0.0954925 0.429571 -0.273277
238 1 30.797 48.1943 47.7985 0.353014 5.17806 -2.18848 0.79435 0.421252 -0.908557
239 2 -1.46097 19.2421 46.1505 2.64292 1.23898 1.87293 0.669082 -0.352841 0.086548
240 2 28.5723 49.7582 8.55061 -2.26305 1.18464 -1.90122 0.0353399 0.0671957 -0.208099
241 2 51.912 6.58094 36.5647 -1.66712 2.75991 1.12132 0.304364 -0.219639 -0.683154
242 2 41.3059 56.7184 46.8897 0.36757 -0.121659 -0.540588 -0.422472 0.0434639 0.0244238
243 1 10.2327 55.7712 41.2059 3.13913 -1.26849 2.68842 -0.456131 -0.317289 0.33092
244 1 37.9352 46.7609 30.7139 -0.0165393 0.447354 -0.385036 0.414306 -0.299007 -0.744514
245 1 16.5301 21.8311 12.3924 0.0492434 0.18318 -1.41669 0.197132 0.542752 -0.491349
246 2 25.9912 53.6413 20.2419 -2.84227 -1.85033 -0.232338 0.0558142 -0.479846 -0.311443
247 1 47.4917 34.4563 39.0735 -0.58872 1.13506 2.69245 0.211885 -0.602537 -0.3895
248 1 14.2493 3.08932 1.32102 2.77736 -2.57423 -0.99801 0.226784 0.125956 0.385109
249 2 13.2122 14.1616 45.9721 -1.78426 2.08701 1.45838 0.0831051 -0.78004 -0.176287
250 2 1.75495 -0.166985 12.0023 -0.2669 3.32546 0.0453737 -0.205753 0.199328 0.227346
251 1 15.9792 55.7259 2.40183 0.291761 0.797301 -0.678077 0.742162 0.590591 0.509856
252 2 14.3177 16.5979 15.9403 -2.61763 -0.785847 -2.6637 -0.330069 -0.42256 0.0923102
253 1 9.61857 23.6342 43.9461 0.69114 -1.72489 3.3113 0.234364 0.450488 -0.10806
254 1 0.417049 49.3671 5.12169 2.55245 1.36683 -1.35061 0.0720502 -0.613409 0.278286
255 2 19.4048 42.2628 31.7457 1.06834 0.293799 -0.290507 -0.690659 -0.315027 0.297093
256 1 25.8984 54.9912 44.3253 4.37943 0.223243 -0.218732 -0.0138728 -0.107871 -0.319837
257 1 14.4401 34.9216 26.1494 2.15217 -2.13584 -0.471924 0.686755 -0.370466 0.305353
258 1 50.4817 50.1473 17.2884 0.79995 -1.34106 2.93039 0.361291 -0.145493 0.18845
259 2 0.907322 0.320732 49.2745 2.06199 -1.68583 2.05626 0.100191 -0.111143 0.447052
260 2 42.6718 51.2899 4.85638 -1.76573 2.29043 0.273599 0.0369314 0.0144784 0.340583
261 2 28.3146 3.88569 33.623 3.5378 -0.640787 -1.72821 -0.491788 -0.137537 0.539991
262 2 29.3971 16.597 -1.36491 0.48571 -3.60119 2.55554 0.957667 -0.592043 0.104284
263 1 25.8654 23.3946 19.498 -0.178758 -0.152569 1.67388 -0.314721 0.2689 -0.818852
264 1 47.5933 35.611 10.9881 2.38079 4.48505 -2.21483 0.177327 0.456921 0.318859
265 1 15.6518 47.0554 33.2827 -1.07645 -2.82517 -5.44472 0.586283 0.274133 0.328611
266 2 13.5362 4.33642 10.4916 0.49702 0.0371394 0.570561 0.394344 -0.0114398 -0.156112
267 2 9.64151 24.2628 40.9901 -1.33975 -1.16673 0.760204 0.111242 -0.103766 -0.290394
268 1 12.7439 20.2224 29.7449 2.45364 2.43753 -2.9164 0.0312559 -0.509302 0.736536
269 2 4.75116 5.24801 57.1439 2.0775 1.85748 -1.0821 -0.194121 0.740334 -0.0511341
270 2 54.4304 47.2604 40.1633 -0.323213 -2.78683 -2.82818 -0.604257 0.731178 0.262876
271 2 45.2783 18.813 22.5759 -3.12156 2.60682 -1.55161 0.232832 6.94096e-04 0.250162
272 1 4.99442 34.1779 23.0285 -3.12792 -1.43804 1.07467 0.204864 -0.656599 -0.345129
273 1 24.5244 14.096 56.7044 4.10547 1.09217 -2.25634 -0.00106766 0.226775 -0.128722
274 1 48.6108 10.3942 38.5252 -1.01067 0.962753 -1.32347 0.409489 -0.320103 0.193868
275 1 20.9746 7.389 46.1252 2.44021 -1.08631 1.36671 0.362606 -0.167745 -0.197088
276 1 8.17312 33.587 35.8354 1.57918 -1.65082 0.0424408 -0.371443 -0.468577 0.220422
277 2 8.04306 27.0009 37.014 0.0913592 0.938532 0.510921 -0.116123 -0.0459829 -0.43542
278 2 40.2413 12.2591 11.3148 2.41616 4.33598 -2.90965 0.0995212 0.201675 -0.424329
279 1 23.6527 41.909 7.96463 1.04509 -0.811741 -4.88564 -0.305819 0.0527191 0.209798
280 1 37.202 47.4349 46.2621 -0.917604 0.752529 2.06102 -0.0226549 -0.157367 -0.170936
281 2 50.6555 22.0901 5.41178 -1.01635 0.295558 0.726037 -0.267933 0.691577 0.394999
282 1 49.9373 6.48038 53.3925 0.508744 2.3676 1.72298 -0.430826 -0.193746 -0.53893
283 1 7.30931 1.94958 9.70339 -1.27017 0.669185 3.04504 0.0700161 0.0613418 0.324263
284 2 41.4431 32.2714 29.2149 2.47595 -2.06124 3.72473 0.468241 -0.252572 -0.201317
285 1 34.1855 13.7339 38.7647 0.741633 1.34559 0.5542 0.261534 0.657925 -0.0454622
286 2 -0.0979812 45.9162 0.692087 -0.845991 -0.263785 -2.51265 -0.234023 -0.0818298 0.497923
287 1 27.1014 51.9161 53.4033 0.671422 -1.99537 -0.721035 -0.575417 0.136043 0.0555471
288 1 11.8891 23.948 44.9493 -0.793945 0.42384 1.15275 0.298565 -0.0974072 -0.0381581
289 1 -1.07745 14.4316 24.4981 -4.03654 0.889167 1.24345 0.488152 0.193693 -0.549561
290 2 9.90082 3.95629 45.3999 0.444013 -1.16024 -1.68748 -0.414725 -0.317651 -0.351634
291 2 15.6709 27.3788 52.6812 0.859101 0.153919 1.20396 0.0116442 0.452431 -0.230925
292 1 13.5454 16.1833 48.0223 3.07272 0.352042 1.13835 -0.721946 -0.0764768 0.0787288
293 1 26.938 52.4297 37.2792 -1.58973 1.41796 -3.37375 0.107141 0.402154 -0.463522
294 1 48.0969 26.1814 32.957 1.0007 0.472324 -4.99464 -0.50091 -0.368198 0.381805
295 2 48.159 53.479 15.9513 1.16455 -0.814476 -1.26271 -0.289943 0.465068 0.21277
296 1 49.5691 4.74692 26.9303 0.859135 -1.63865 -0.522866 0.175371 0.0928608 -0.149085
297 1 48.9077 55.1533 10.752 -2.92364 -1.87634 -1.35642 -0.108209 -0.396652 -0.0775785
298 1 33.5184 39.9848 43.6953 -3.91774 -3.00647 -0.42658 -0.656254 -0.448073 0.359755
299 1 24.5293 40.2911 19.9775 -1.33505 -0.435486 -1.31892 0.440367 -0.27171 -0.340564
300 1 49.3376 39.0838 23.7273 -1.45585 0.357297 2.57101 0.224277 -0.0609112 -0.356407
301 1 24.1434 19.3834 40.9797 -3.96723 -0.00830801 0.0886758 0.571561 0.326207 -0.359929
302 2 36.5766 31.8838 36.2803 0.999914 -2.91575 0.315606 0.126118 -0.269421 -0.373958
303 1 11.7729 3.63294 36.1444 -0.918173 2.00681 -2.75031 0.505241 -0.230787 0.0183938
304 1 0.809272 43.1673 25.0325 -3.99922 -2.2677 1.08451 -0.140922 0.139347 0.337535
305 1 4.60349 3.43886 -0.0194902 2.08285 -0.583227 -2.45108 0.141043 -0.420711 0.713609
306 1 1.81902 54.625 51.928 -1.06813 -1.60779 -4.42194 -0.0124936 -0.52184 -0.663362
307 2 51.3815 16.1176 41.7963 2.1186 -0.00136601 -4.11272 0.171999 -0.113506 -0.0764009
308 1 9.10455 -0.278372 36.3895 -0.652751 2.63113 1.95188 0.688175 -0.126646 -0.0449773
309 1 1.49057 52.1499 15.0285 0.00230167 3.98245 -0.416548 -0.248699 0.138575 0.286344
310 1 45.3995 47.0527 24.4678 -1.86643 -3.37198 -0.747431 -0.369182 0.0883017 0.0366437
311 2 18.8192 21.9343 48.1582 -0.021647 0.315068 -2.79802 -0.248369 0.0572152 -0.214781
312 2 6.7848 40.6654 5.9481 -0.91236 -1.11774 -0.0126352 0.0280606 0.196748 -0.0150956
313 1 55.2514 17.5235 7.39719 0.669514 -0.619001 -1.22211 -0.190314 -0.0885767 0.211127
314 1 56.0773 24.8817 47.6877 2.99719 2.308 0.379788 -0.358748 -0.0726495 -0.0167226
315 2 32.558 25.5143 48.805 -2.4419 0.535811 -1.90819 0.172278 0.547412 0.257902
316 1 45.4765 32.162 35.6578 0.694805 -0.8059 -0.703322 0.45991 -0.200123 0.200674
317 1 16.0667 41.5613 50.4049 2.327 -3.7764 0.755206 0.272433 -0.195566 -0.0110476
318 1 42.1281 -0.0135272 2.83722 1.39763 1.57829 1.13561 -0.395576 -0.00267799 -0.416712
319 2 44.7268 56.0624 32.5235 -1.98503 -1.32887 0.257238 0.496839 0.468406 0.00509002
320 1 53.4561 35.5404 36.8574 8.8084 2.30513 0.158231 0.110356 0.617393 -0.61366
321 2 12.8681 22.5996 6.61972 -2.10941 1.74945 -1.30844 -0.412015 -0.282105 -0.50101
322 1 16.8706 37.3929 5.71344 2.23384 0.497963 1.1798 0.186038 0.289187 -0.17645
323 1 44.0156 7.88263 42.5422 -1.25104 1.54662 -0.98246 0.422574 0.153509 0.316447
324 1 51.8723 38.0912 31.6036 2.89397 0.482859 -0.766885 -0.073916 0.301103 0.297822
325 1 14.7107 16.8672 50.1032 -1.34708 1.48079 -2.71633 0.263344 0.471281 0.120299
326 2 39.7013 0.579126 4.10517 -0.260395 0.387083 -3.56247 0.180588 0.329563 0.425138
327 2 21.2684 -1.32757 38.8508 -1.18085 1.66167 0.260557 -0.17165 0.0118038 0.319853
328 2 28.0607 51.579 31.7145 0.628239 1.64239 -1.03229 0.173748 0.198705 0.400355
329 1 56.7791 8.84776 9.2833 3.15728 -3.89734 -2.73803 0.0296815 0.194612 0.460194
330 2 40.9914 20.9607 30.1619 0.255964 0.462288 0.144854 -0.567318 -0.585746 -0.441171
331 1 11.4357 51.644 3.23337 0.701447 -2.03669 -0.672675 -0.44953 -0.149586 0.49705
332 2 28.7006 18.5316 30.0196 2.19502 -0.2298 1.06662 0.282426 -0.290109 -0.187158
333 2 15.9443 52.7296 47.6546 2.02303 1.69606 -1.75436 -0.212517 -0.33626 0.00835653
334 2 44.9968 51.3115 50.8162 2.02712 1.87945 0.0890623 0.447718 0.123534 0.0240219
335 2 8.80249 29.2618 4.50804 -0.294642 1.09839 1.01571 0.511083 0.392267 0.544305
336 1 5.36395 50.5473 5.47563 0.76411 -0.173591 2.93865 0.0696385 -0.35374 0.00400298
337 2 48.6226 29.7611 43.1794 -2.27222 1.4225 -1.52974 0.266972 -0.146233 0.0627141
338 2 30.4097 12.4297 23.1696 0.376699 -4.17943 -0.166799 0.31948 0.246162 0.0583208
339 2 4.6115 21.6282 56.1811 1.01377 -0.389242 0.262516 -0.270473 0.094715 0.296617
340 1 23.0258 0.386268 53.8543 2.04831 1.10337 1.10695 -0.0199398 -0.0741421 0.0886538
341 1 43.9176 15.2539 38.303 -0.635112 -2.4024 -2.10763 -0.170546 0.63798 -0.248153
342 2 0.427153 5.27198 25.7841 0.725691 -0.926802 1.39416 0.120024 0.116345 0.247045
343 1 18.9607 44.2851 13.0427 2.2052 0.857715 -2.00829 -0.475857 0.115944 -0.110021
344 2 29.264 29.631 12.8403 -1.18288 -0.0262182 2.20985 0.295322 -0.178828 -0.696576
345 2 4.24523 34.362 17.9878 -1.97578 -0.962132 1.22673 -0.0651004 0.269214 -0.0822678
346 1 52.6739 34.2852 34.4492 2.23957 2.80776 1.25494 -0.594286 0.455692 0.15346
347 2 48.8771 26.5966 24.589 -1.45997 -1.09289 0.322174 -0.0915279 -0.106812 0.300962