ITEM: TIMESTEP
22000002
ITEM: NUMBER OF ATOMS
13500
ITEM: BOX BOUNDS pp pp pp
-3.70076 56.2008
-3.70076 56.2008
-3.70076 56.2008
ITEM: ATOMS id type x y z vx vy vz fx fy fz
1 1 26.042 54.9134 24.4383 3.20484 -1.99188 -4.01802 -0.13888 -0.653182 -0.34705
2 2 42.5005 36.7792 37.0622 0.583663 -0.936185 -2.21235 0.231601 -0.173336 -0.23585
3 2 44.3758 24.9123 17.9045 0.0414943 1.10488 -2.72482 0.0430099 0.728335 -0.0288158
4 1 53.916 13.267 54.6992 -0.512581 0.282449 0.0734607 0.208848 0.482949 -0.21293
5 1 30.779 28.6064 25.9009 -0.73328 -1.07662 -0.252806 -0.258209 -0.580144 0.189277
6 2 38.4968 42.2405 52.6778 1.6705 -0.821749 0.602541 -0.163221 0.0421294 0.265725
7 1 43.8686 29.5047 16.3066 2.21144 -0.993023 1.6144 0.176049 0.890726 -0.0301752
8 1 1.88332 -0.609315 42.7487 4.93502 -2.62511 0.81485 0.288778 0.220489 -0.371419
9 1 51.4242 28.6492 17.3157 -1.77921 -1.16764 0.399115 0.122911 -0.509264 0.21788
10 1 33.389 53.1338 14.599 -1.38744 0.789816 -1.54242 -0.0428315 -0.0800356 -0.383674
11 2 33.0343 43.5322 55.219 -1.65572 1.82232 -1.11267 -0.410222 -0.167974 -0.0367991
12 1 1.64057 47.9578 -1.8047 -0.469036 -0.21137 1.42087 -0.163293 -0.0892712 0.0661559
13 1 30.173 6.18214 3.01617 -1.52216 -0.870901 -1.83498 -0.131608 -0.0609756 0.028159
14 1 13.2844 32.4082 36.3995 -1.75481 1.59734 2.45655 0.0722458 0.327083 0.180769
15 1 35.8909 3.18972 48.141 0.255625 -0.797116 -1.12858 0.484534 0.0405225 -0.269241
16 2 45.4654 21.4225 21.7419 2.12893 -4.46211 1.56344 0.258085 -0.141842 -0.142695
17 1 7.65663 1.87196 43.4802 -0.187419 -1.79611 -2.61068 0.257061 -0.636511 -0.450129
18 1 52.7838 29.9068 42.7266 2.22215 -0.0308719 1.94493 0.345867 -0.454614 0.0611462
19 1 42.879 15.7102 45.0647 -2.49922 -0.277995 1.68756 -0.0533821 0.682249 -0.561788
20 1 20.0822 9.86089 4.08784 0.258686 -2.25664 0.570579 0.280348 -0.284212 -0.124985
21 2 49.1958 18.475 41.4605 -0.709064 1.94063 -1.57118 -0.06718 0.421704 -0.126705
22 1 54.7402 7.33087 2.01231 1.15955 -1.68135 2.35651 -0.0167524 0.429287 -0.219004
23 2 24.1564 1.59727 3.1116 -0.048872 1.04419 -0.544717 -0.0853992 0.494348 0.122743
24 2 32.1433 52.06 54.7779 1.67923 -1.0576 1.01346 0.439388 0.273892 -0.0618906
25 2 46.8395 14.5311 31.5421 -1.57101 -0.84606 -0.633261 0.672945 -0.0938322 0.638403
26 1 -0.434675 27.1912 -1.12985 -0.928243 -1.34162 0.802077 0.0446892 -0.0816107 0.199705
27 1 43.7247 0.945074 40.2618 -3.62277 -0.242224 0.431396 -0.151924 -0.794137 -0.660131
28 1 28.6887 -2.01639 32.5624 -1.156 0.742694 1.33123 -0.584766 0.263499 0.150526
29 1 0.365282 33.2898 13.1674 -1.30175 -0.211186 -2.03958 -0.327496 0.244895 0.93752
30 1 16.8032 55.7874 0.805973 -2.62053 1.60156 1.81715 0.14535 -0.162029 -0.226651
31 2 0.0122439 54.3434 18.251 1.23683 -0.237978 0.669363 0.19657 -0.261855 -0.195547
32 1 45.7251 48.3773 26.8665 0.682617 0.571356 -3.12319 0.0651616 0.178515 -0.511783
33 1 9.40869 20.6445 29.0671 0.75004 1.4933 -0.0875785 -0.046482 0.318116 0.0478694
34 1 44.8192 21.1865 29.7994 2.2569 -2.68241 0.171757 0.0159263 -0.266277 0.243726
35 2 34.8295 -2.79526 20.4817 1.69097 1.58753 0.25448 0.176799 0.560234 0.244155
36 1 39.176 36.5155 7.16096 -3.26616 0.261814 -0.368426 -0.139767 -0.416939 -0.0588315
37 1 -1.17491 3.06415 31.5598 -1.3307 1.40907 1.73341 0.0643169 -0.457971 -0.872943
38 2 49.8219 4.4465 49.1788 -0.207729 0.790842 2.35516 0.24354 -0.245187 -0.430016
39 2 24.9242 34.7316 51.2149 -1.28095 -3.69076 -2.04651 0.16104 0.258507 -0.363374
40 2 51.0539 38.1904 40.3883 1.23482 -1.86799 -0.618358 0.49854 0.869331 0.0466534
41 1 8.66083 23.4987 19.9499 -0.112326 -2.04556 3.11604 -0.280619 0.116377 -0.0548681
42 1 -2.8045 54.9236 38.4264 0.503239 2.53441 -1.22576 -0.0786222 -0.394168 0.185395
43 1 33.5129 3.69617 48.3237 -0.631686 -1.86541 1.25126 -1.17928 -1.21993 0.537423
44 1 46.5993 19.3695 15.1629 -2.08166 0.967035 0.536968 -0.364423 0.321638 0.223322
45 1 23.1472 33.8525 53.3637 -1.01808 1.091 0.655173 0.53641 -0.314878 0.055112
46 1 37.6426 40.1029 -1.01388 3.26008 1.34835 -3.45651 -0.366774 -0.488695 0.0662421
47 1 46.1141 10.8915 14.8343 3.36945 -0.733813 -2.18854 -0.0266911 0.324346 0.35473
48 2 12.2985 16.485 19.3984 0.897189 0.690209 -0.849596 0.0832629 0.56015 -0.363043
49 1 7.88813 30.4072 1.01298 1.92746 -0.270727 -1.89904 -0.0477172 0.853158 0.22035
50 1 34.5062 4.5495 14.4203 -6.1761 3.39012 2.45215 0.457822 -0.136532 -0.398526
51 1 12.3222 32.4444 53.0406 -0.615955 1.85743 -1.66917 -0.26399 -0.289015 -0.00985267
52 2 30.4155 29.435 34.8297 0.980838 0.255146 4.02559 -0.0725061 0.736976 -0.212224
53 1 35.9969 37.1081 11.2872 0.65248 -1.61411 1.66114 0.0661558 0.714003 -0.328815
54 1 34.7087 1.46249 3.93849 -0.709998 0.963042 -1.36305 0.413642 0.452408 0.136016
55 1 33.9456 -1.6453 16.8721 -0.256388 0.900792 2.47859 0.851389 -0.458889 -0.137743
56 1 26.8316 26.1988 40.0415 -2.89993 -0.228007 -1.99683 0.00818063 -0.101842 0.653334
57 1 -2.74496 50.8315 41.4692 -0.122625 -0.429378 1.51591 -1.1311 -0.0795666 -0.0873886
58 2 45.3257 22.2106 -1.54396 -1.33147 1.52003 0.982429 -0.715597 -0.0202733 -0.0491758
59 1 21.2273 -2.33639 36.3166 0.449946 1.2887 -1.81858 0.638995 -0.407085 -0.0810512
60 1 12.742 6.74049 55.171 2.3481 3.04059 0.387095 0.694415 -0.0755199 -0.130139
61 1 35.8354 31.0614 33.3023 -1.20579 -0.737385 0.815137 -0.0265978 0.142089 -0.164389
62 2 17.7382 48.1014 37.8113 -1.88499 0.119504 -1.70975 -0.0109347 0.229678 -0.345224
63 1 41.7935 9.70712 24.2932 -0.819668 -1.73203 0.122865 -0.845641 1.34151 0.131168
64 1 8.8198 5.57393 10.5168 1.52766 -1.56339 2.18107 -0.00660723 0.646164 -0.227928
65 1 8.23578 29.5725 51.4216 1.97229 4.30246 -2.15728 -0.317338 0.409805 -2.20378e-04
66 1 18.4635 53.5477 46.2915 -2.13422 -2.33981 0.372327 0.120762 0.531057 -0.0804402
67 1 21.1126 12.533 54.3709 0.357929 -0.879317 1.0667 -0.0480626 0.899394 -0.686139
68 1 1.97288 22.0259 8.0068 -0.176701 2.25954 1.44066 -0.0294207 0.433399 -0.432107
69 1 21.6939 48.3201 53.6782 1.92032 0.306752 0.531487 -0.310823 -0.564344 0.0296898
70 1 27.748 49.398 23.1557 -1.13654 1.64511 2.33519 0.196134 0.160304 -0.612711
71 2 41.5149 26.3528 4.35704 -1.31714 1.45196 -3.92876 -0.525018 0.114987 0.00251769
72 2 47.7994 28.9218 50.4761 0.520328 0.99193 -0.0518154 -0.500338 0.579155 0.157948
73 1 8.39882 11.3265 27.81 2.22079 2.33837 -1.8447 -0.100557 -0.684129 0.0527602
74 1 36.3498 8.29713 -3.20185 -0.237064 -0.73518 1.48993 0.187116 -0.256996 -0.564866
75 1 36.4275 22.8693 -3.08074 -2.33386 -0.479761 -0.472885 0.227774 -0.239467 -0.0682823
76 1 18.6298 5.56431 38.5623 -1.52034 0.36519 0.279586 -0.279602 -0.427773 0.435398
77 2 14.9632 19.0231 -2.47949 -2.33574 0.354671 -0.653616 -0.0842756 0.132851 0.0772466
78 1 38.7231 -0.630787 49.2755 -0.99648 2.77362 0.586501 0.88407 -0.020402 -0.447757
79 1 0.937087 39.1156 6.73812 1.41976 0.70038 -2.30155 0.0141589 0.0230098 0.141851
80 1 39.5868 39.8295 -2.90515 1.48694 1.38113 2.20805 -0.0984591 0.62564 0.16173
81 1 28.0775 36.2287 -0.224554 1.30312 -0.511853 -1.37288 -0.452609 0.545889 -0.23169
82 1 48.6828 -0.2942 38.7275 1.11469 1.49138 -0.408664 0.406346 0.00264539 -0.195943
83 2 52.5446 46.992 13.9033 0.242988 -3.72066 1.78407 0.780926 -0.0525388 -0.2228
84 1 45.3885 7.60586 39.5887 0.81845 -0.686398 1.93875 0.360516 0.152525 -0.271871
85 1 41.0344 50.4261 -0.891506 0.856971 -0.574784 -2.62609 -0.237434 0.0299308 0.466286
86 1 39.38 15.5289 7.14836 -1.50685 -0.684272 -0.191947 -0.304716 0.604057 -0.20502
87 1 21.7567 3.1981 44.5544 -0.465189 -0.178972 -0.972654 -0.359252 -0.108307 -0.0767026
88 1 -2.65992 13.4107 6.07092 2.80458 0.05578 0.1856 -0.488401 -0.573344 -0.0206909
89 1 13.3235 49.9287 33.726 -0.250508 -0.520298 1.56091 -0.577942 -0.885405 -0.142043
90 1 45.4976 48.2566 32.324 -0.631081 -2.04126 -2.26293 0.238503 0.465303 -0.363427
91 1 21.018 29.8931 4.29235 4.74216 -1.49206 -0.423918 -0.0176506 0.259977 0.77752
92 1 55.7621 -0.3826 40.1426 4.31713 -0.977972 0.341202 -0.186931 0.001735 -0.258237
93 2 19.8071 47.4731 33.0938 0.832293 -1.13931 -0.432141 0.0988996 -0.132628 0.213384
94 2 4.87931 47.5779 30.2294 0.946437 0.949458 -0.886314 -0.119112 -0.480129 -0.060822
95 1 52.0153 51.4741 29.0402 0.46678 0.719301 1.27978 -0.524231 0.0250647 -0.451372
96 1 43.2333 -3.33656 37.9752 2.23217 1.37463 0.464907 0.156927 0.503021 0.471451
97 1 56.1008 28.0993 20.8226 2.48384 -0.150677 0.140857 -0.19719 -0.330773 -0.502824
98 1 11.3244 21.0005 15.9576 -2.6708 -2.77341 -0.779924 -0.412823 -0.638661 0.221847
99 1 8.64435 33.8865 26.8723 -0.862534 -1.65834 -1.25417 0.516908 0.260921 0.0978071
100 2 54.8037 54.6883 11.8752 -0.656083 2.26973 -1.63635 0.22644 0.450491 0.473224
101 2 6.27554 11.0321 15.4618 0.0881913 1.33377 -0.340758 -0.0788542 0.393734 0.398079
102 1 43.1287 34.7688 54.0791 -1.78832 1.09726 -0.87389 -0.2563 -0.0198499 -0.635103
103 1 7.3609 52.1154 5.15008 1.08898 -0.655598 0.289855 0.681648 0.429709 0.364932
104 1 30.511 40.5315 37.1056 1.18801 -0.37208 -2.64761 0.106425 -0.149797 -0.233502
105 1 9.45378 41.0488 45.5814 -2.33874 -0.859022 1.58522 0.135506 -0.694891 -0.088629
106 1 7.62349 26.2185 4.734 -0.570811 0.993138 -0.774106 0.176886 0.17569 -0.682188
107 1 26.1242 7.48904 25.0104 -1.14148 0.733248 -3.45261 0.00291888 0.482353 -0.175209
108 2 0.65376 33.5497 40.0572 1.95265 0.5131 -4.18846 0.587512 -0.117826 -0.431542
109 2 53.452 -1.06403 28.7503 0.906064 -0.563588 -0.916052 -0.0868546 0.419593 0.297011
110 2 32.7914 21.7566 7.35147 -1.29642 -1.67904 -1.26086 0.0136766 -0.951937 0.0870702
111 1 42.451 44.0982 24.6465 -3.33421 -1.98276 2.57991 0.603171 0.153061 0.413964
112 1 17.4794 10.3769 40.5588 2.98853 2.27983 1.8784 0.341695 -0.230173 0.04998
113 1 4.58947 56.1795 44.2077 2.14018 0.277482 -1.00541 -0.391323 0.504896 -0.0333523
114 1 0.938517 51.806 34.7319 1.88435 1.72243 -0.723444 0.902916 -0.729878 -0.51349
115 2 53.6228 9.25696 43.8349 -1.63361 0.271614 -1.94678 0.093197 0.762383 0.169451
116 1 11.8255 36.1325 34.1735 2.33057 -1.93677 0.712413 -0.436359 -0.332775 -0.572895
117 1 33.4013 29.5094 0.458757 -1.73467 3.22356 2.40363 0.411866 -0.185169 -0.0242698
118 1 35.9504 -2.70609 43.4005 -0.974645 2.05189 -1.35781 0.0785109 0.415481 -0.230919
119 1 -0.25613 49.1046 38.2635 3.11075 -1.23913 0.17129 0.339117 0.205347 0.859273
120 1 49.8054 1.59002 -2.49867 -2.92355 0.211323 -0.687204 -0.243667 -0.12005 -0.574727
121 1 47.5198 13.4872 34.1941 -2.5104 -0.731241 1.4561 0.383727 0.311523 0.531053
122 1 18.832 22.5735 32.3878 0.307872 -3.43463 0.797706 0.485822 -0.181928 0.0507863
123 1 25.8882 25.7926 22.8924 -1.34327 -0.403919 -1.13918 0.300144 -0.294828 0.0137553
124 1 10.3422 54.1411 25.961 4.03852 2.50919 -2.82453 -0.243496 -0.50254 -0.0745593
125 2 7.60198 27.7716 46.6617 0.204947 0.71369 -1.55053 -0.238293 -0.318079 0.197638
126 2 32.2212 22.6746 34.5008 1.8043 1.3531 0.559231 0.122041 -0.469589 -0.204679
127 1 22.9324 21.7066 34.9627 -2.14879 -2.09242 -2.274 -0.737771 0.102837 0.40553
128 2 54.3349 40.0805 7.14545 1.70303 0.239194 -1.63867 -1.3978 -0.0615521 0.0673938
129 1 32.0585 55.4671 43.9897 -1.11254 -0.460327 2.19219 0.308161 -0.473567 -0.288582
130 2 11.1789 55.4205 40.9247 0.220422 -1.30296 -0.8576 -0.187532 -0.213235 -0.379466
131 1 11.6543 23.8633 -2.05808 -2.84054 2.70765 -1.22947 0.107635 0.52136 0.190402
132 1 22.356 36.9605 55.2713 -2.71788 0.169895 -0.111597 -0.346063 -0.193329 0.711754
133 2 3.81493 24.8501 42.2015 0.546294 2.57283 -1.70126 -0.0822824 -0.0347821 0.209087
134 1 18.6319 39.0306 24.5062 -1.34096 2.26264 -1.10309 0.17912 -0.131518 0.416132
135 2 18.6714 3.59915 54.1416 1.15238 -2.69837 0.0495719 -0.60371 0.52926 -0.227488
136 1 53.3663 49.8209 27.8551 1.14183 3.84033 0.445962 -0.118378 0.55993 -0.601182
137 2 34.4674 50.0797 20.5043 -0.746882 0.667503 1.072 -0.363885 -0.350321 -0.10641
138 1 24.1207 22.8659 39.8892 -2.67536 -0.327426 0.252976 0.825218 -0.112519 -0.257812
139 1 -0.871528 32.9066 33.8458 2.44968 -0.0879181 2.04115 -0.00342943 -0.31831 0.0783522
140 1 53.5704 42.2725 37.9536 1.25773 0.330867 -1.67315 -0.818233 -0.183829 0.00721912
141 1 20.8948 -0.66907 27.0348 0.846033 -0.6552 -1.54506 0.403353 0.383173 -0.274379
142 1 14.783 5.23591 41.1445 0.115903 1.12702 2.46093 0.554553 0.0169993 0.114384
143 1 15.1573 22.4923 29.6404 0.428232 3.51247 0.416888 0.196144 0.453327 -0.367527
144 1 26.717 51.3784 38.0527 -2.15222 -1.45278 1.41792 -0.384415 0.200627 -0.467298
145 2 26.1199 -0.0358924 5.01416 -0.261288 -2.11237 -0.0503187 0.593897 0.331897 0.246412
146 2 55.4248 36.0652 26.2148 -0.905904 0.983997 -1.54199 -0.0687338 -0.24093 0.0316476
147 2 44.6487 53.1609 31.9578 0.0425313 -1.18698 -0.797411 0.573271 0.0767215 -0.225338
148 1 16.5871 14.7175 54.1785 0.0670786 1.58195 -4.94136 -0.0436911 -0.188496 0.199693
149 1 -1.08131 32.0245 6.91657 -1.11302 0.767787 -1.11019 -0.213809 -0.679889 -0.0583572
150 2 24.5962 29.7703 12.2037 3.47914 0.918637 3.6779 0.296652 -0.190605 0.418753
151 1 11.8542 5.479 19.535 -1.06907 4.47718 -0.978011 -0.517445 -0.596008 0.017019
152 2 42.739 34.9821 13.5302 -0.111636 2.08694 2.83561 0.788403 0.0402827 0.1398
153 1 14.1308 36.5831 37.8323 0.112786 -1.39965 -0.162196 -0.376428 -0.0596881 -0.0233154
154 2 20.7742 10.6347 18.9449 0.167244 -0.279002 -1.90895 -0.305733 -0.181718 0.0885554
155 1 54.8186 0.904129 12.9006 -1.90012 2.16203 -0.0776304 -0.0130919 -0.0227166 -0.0280615
156 1 55.7486 31.9033 3.49014 1.50698 -0.234067 -1.48217 0.560682 -0.17213 0.0582763
157 1 42.8853 53.52 29.6317 -3.56088 -0.792433 -2.56401 0.357454 0.283467 0.19484
158 1 18.0831 32.3794 26.0051 -0.776723 -1.03186 -1.57341 -0.732794 -0.601872 0.676168
159 1 40.1195 22.821 47.3935 -4.1494 -0.0467797 -1.73199 -0.106707 0.039846 -0.450743
160 1 45.0332 29.5952 45.7707 -3.69959 -3.49517 0.290256 -0.00721869 -0.236839 -0.224324
161 1 37.4025 39.9095 23.7789 3.46767 2.5443 0.0461592 0.875348 0.308139 -1.18033
162 1 48.1693 51.9244 42.2374 0.473662 -0.333473 1.1665 0.388984 -0.384365 -0.174434
163 1 38.9895 9.42627 -3.22142 -0.625659 -0.454086 -1.60964 -0.358096 -0.283814 0.101072
164 1 37.7929 27.9883 25.2535 0.879711 3.29427 0.0574356 0.161396 0.178277 0.179226
165 1 6.66703 11.0414 10.7128 0.980997 -0.840441 0.187737 0.18471 0.0466633 -0.320579
166 1 16.5622 42.2725 21.4972 2.64394 0.257989 -0.751129 -0.44393 -0.123555 0.0687051
167 1 55.3526 49.7372 37.1947 3.14184 -0.365119 -0.704836 0.536556 -0.0334972 0.0274509
168 1 18.4018 44.5404 8.54664 2.67807 1.57919 2.83867 0.587031 -0.827057 0.259924
169 1 42.0152 41.4174 38.3215 1.4347 1.73045 -0.327929 0.18504 -0.224713 0.398845
170 1 12.6533 26.2341 46.1869 -3.44043 0.121835 -0.120994 -0.392811 -0.186479 -0.532725
171 2 30.0274 25.5331 32.2664 -2.12387 -0.330989 1.05658 -0.0654054 0.0919626 -0.0671497
172 1 -3.5905 5.19682 34.3477 0.42854 0.283091 0.961542 -0.232216 0.148067 -0.576026
173 1 52.9116 -1.34496 -2.39978 -1.0656 -4.04578 -2.10903 0.11074 0.0148003 0.486658
174 2 22.2108 2.29595 0.59281 -1.95308 0.802006 1.45248 0.867954 -0.277072 0.129859
175 2 13.5365 30.4837 38.2114 0.863997 -2.24434 -0.141973 0.697712 0.136254 -0.0957094
176 1 24.3387 25.7944 2.5441 0.727241 -0.7456 -2.49781 0.991055 -0.149051 1.25116
177 1 47.5527 13.2003 -0.627406 1.5716 -0.541654 -1.55492 -0.509601 -0.0478315 -0.307955
178 2 8.70195 41.6509 39.6424 -1.19085 -1.2474 -1.39611 -0.125199 -0.00460899 0.223878
179 1 8.76501 33.6487 35.9333 2.16371 -2.98888 2.48966 0.0513911 -0.327587 -0.186588
180 1 10.603 5.29905 45.2268 -2.01892 -0.286622 -1.12498 -0.929899 0.62947 -0.551027
181 2 38.8774 -3.36932 1.47456 -3.3948 0.041588 -0.871111 0.00565836 0.116841 0.208398
182 1 12.0689 28.9523 29.7709 -1.42333 -4.67024 -1.07973 -0.664912 0.0222908 -0.405785
183 2 0.866512 49.5887 53.706 -0.699831 2.89367 -0.619985 -0.40018 0.0401 -0.48979
184 2 35.709 5.48176 17.1121 0.511331 3.21877 0.576236 0.391619 0.284842 -0.345164
185 1 43.0603 -0.459472 -3.45062 -3.02281 0.515899 0.316938 0.428906 0.228983 -0.505734
186 1 53.6435 46.5463 20.4572 1.55377 -2.47785 -0.733293 0.16979 0.196078 0.22784
187 1 33.952 49.8587 50.6686 -0.913624 0.7967 1.2687 -0.0496631 0.563723 -0.543219
188 2 5.47314 31.912 2.00155 -0.958762 1.15258 -0.819504 -0.537701 -0.721576 -0.410919
189 1 14.3143 47.6911 50.6308 2.84482 0.837564 1.85882 -0.683266 0.214027 1.03886
190 2 -2.96629 0.454496 49.5868 0.916687 2.30709 0.5414 -0.176107 -0.104826 0.730067
191 1 26.4362 9.77963 46.1482 -0.899457 0.0972405 0.618248 0.469162 0.468963 -0.239275
192 2 24.4264 49.3672 38.9024 -1.24957 0.802655 -0.376585 0.308087 -0.00367539 -0.163822
193 1 30.882 46.774 1.76764 1.5628 -0.571984 0.492868 0.276332 0.504213 -0.222798
194 2 43.3178 44.6178 47.785 0.840197 0.421214 2.28241 -0.211034 -0.0988639 0.749026
195 2 18.7372 42.2373 32.2748 -1.93164 -0.332334 -0.700737 0.00233774 -0.220251 -0.59083
196 1 26.8627 0.463914 7.49131 1.1739 -1.21943 -1.21641 -0.0806956 0.0166833 -0.0163314
197 1 1.92165 24.6385 30.7027 -0.358194 -2.53902 2.08645 0.219263 0.15501 -0.383818
198 1 34.082 15.2071 41.9167 -3.06621 -1.87063 2.29499 0.0819111 0.124888 -0.167414
199 1 23.6518 -1.45573 12.8018 1.28485 -0.475089 0.981745 0.596335 0.029247 -0.140977
200 1 38.6887 16.8482 -0.264994 0.117248 -3.16612 -1.767 -0.0928019 0.813802 0.859822
201 1 55.1582 5.12756 10.572 0.314523 -1.35721 -0.863513 0.162728 0.0124682 -0.282529
202 1 46.8338 -0.865513 37.0466 -0.711077 1.52012 -1.3652 -0.0490159 0.12695 -0.160875
203 1 21.4923 0.180506 36.9052 1.54091 -4.40377 -1.42816 -0.532499 -0.0384229 -0.314428
204 1 17.6332 38.3397 40.2159 -4.34713 -1.68152 2.184 0.206459 0.290834 -0.0549436
205 2 13.8018 2.11213 54.0828 1.08129 0.25144 -0.964492 -0.293722 -0.0213758 -0.00711415
206 1 48.4321 25.7484 27.2819 -4.15199 -0.0273316 -3.03784 0.577795 -0.0261433 -0.470797
207 2 0.501278 52.7269 6.84278 -1.09312 -0.0235717 -0.259118 -0.528625 0.363386 -0.408729
208 1 27.6669 1.27839 -3.35706 -0.455571 -0.725413 -2.52151 -0.419614 -0.0532733 -0.379535
209 2 28.4209 9.62104 -2.8354 1.43536 0.215902 -1.81686 0.284985 0.392276 -0.366786
210 2 1.13365 28.7977 32.0229 -0.944968 -1.63225 -2.3553 -0.017575 -0.544904 0.281376
211 1 36.1587 17.2114 28.2457 2.87112 -2.59047 -2.86509 -0.317097 0.113887 0.00115771
212 1 3.31214 23.0326 37.5352 -0.440189 -1.59724 -0.136841 -0.395945 0.105762 0.346403
213 1 4.92981 16.6925 0.578328 5.74711 -1.05476 3.44176 0.673292 0.128539 0.905316
214 1 51.6316 12.5014 19.2399 -0.731449 -1.86434 1.56114 -0.337803 -0.235328 -0.261958
215 2 4.5741 19.3158 19.6733 -2.16971 -2.78216 1.22789 0.0201595 -0.0505533 -0.0323042
216 2 48.7322 39.728 33.3968 1.36865 1.85608 1.02411 -0.951525 -0.597032 -0.46149
217 1 36.9913 13.8332 33.1921 0.61743 2.23041 1.01027 0.736701 -0.16318 0.693552
218 2 36.3812 11.8984 44.4292 -3.98695 0.761451 0.248604 0.409033 0.091352 0.491244
219 2 32.5256 50.168 25.1291 -0.098072 -1.82213 -2.20796 -0.226611 0.664828 -0.374529
220 1 41.3963 5.26427 41.2419 2.25146 0.340143 -3.60134 0.0299378 -0.670376 -0.123041
221 2 51.5638 29.3074 53.9939 2.14888 0.0647579 1.37486 -0.631917 0.289012 -0.135016
222 1 43.8931 13.5833 44.4044 -3.39467 -0.442627 -0.587872 -0.601473 -0.412824 0.294651
223 2 18.7791 8.05262 52.5644 2.62202 0.335536 0.752733 -0.0713738 0.297246 -0.645476
224 1 2.24758 17.6204 18.8511 0.653597 -0.369169 1.77578 0.264601 0.140906 0.174802
225 1 28.6782 50.5992 27.7353 -4.58995 0.75538 0.886214 0.472508 0.380006 0.217133
226 1 26.1541 48.9839 37.0971 -3.482 0.161546 -1.69874 0.419534 0.0482515 -0.288817
227 1 50.0224 30.2194 28.9669 -2.48968 -5.61717 1.23338 0.78273 0.0131381 -0.305213
228 1 6.21167 2.41766 28.2881 2.4972 1.21675 0.257322 0.0193948 0.273184 0.0590697
229 1 1.08463 50.8338 20.6188 1.66297 2.02019 0.359492 0.149979 -0.0997297 1.30677
230 1 4.11916 6.40839 -2.61532 2.82129 0.851887 1.93482 0.722761 0.519372 -0.224968
231 1 45.9834 10.7599 28.1769 1.84199 -3.89178 0.195013 0.575705 -0.0686107 -0.229597
232 2 10.2268 2.52629 45.0928 0.363801 -2.53373 -0.990987 -0.573741 -0.156945 -0.574636
233 2 16.4009 39.8731 45.8048 -0.177691 -2.65628 0.758288 -0.48093 -0.281483 -0.523854
234 1 38.3593 31.4904 8.73668 1.19694 0.02996 -1.66376 0.827848 -0.0844204 0.342881
235 1 24.501 45.8371 23.5726 0.957885 2.53212 -0.506537 0.326774 -0.200442 0.101601
236 1 14.8608 48.1272 8.41578 -0.547598 -1.10937 -2.4639 0.280389 -0.66277 -0.770055
237 1 52.2296 -0.135327 46.994 0.238215 -2.01703 1.67724 -0.210005 0.201578 0.0542471
238 1 -2.76425 12.7957 8.53838 -0.00762083 -0.72541 1.61186 -0.29385 -0.679902 0.155903
239 2 7.64028 49.4455 26.3237 -1.63678 0.781859 -1.7911 0.144173 -0.426901 0.0712764
240 1 18.1528 40.1754 36.3354 0.918714 -1.88289 -2.04013 -0.0850611 0.409219 0.101171
241 2 35.4859 -2.08512 25.2827 -1.07295 1.65841 -0.58483 0.275956 0.0842774 -0.390884
242 2 34.8869 10.4832 42.142 1.52521 1.76722 -0.109781 0.0235971 0.329508 -0.44928
243 1 38.1537 26.3563 27.3657 0.563372 -0.821467 -1.0242 0.348954 0.479776 -0.0930885
244 2 27.3225 -2.89258 23.7419 1.85385 0.0511812 0.0357364 0.387442 0.0241992 0.763177
245 1 55.4866 55.4139 42.0744 -1.02386 -0.0584077 -1.26533 -0.300273 -0.293098 -0.293527
246 2 24.5913 -2.94057 41.6223 -3.953 -0.382965 -0.384853 0.610517 0.477229 -0.449679
247 1 46.8646 44.7609 24.4878 -1.24666 -0.619145 1.14539 -0.147826 -0.150406 -0.300902
248 2 40.7104 -2.64951 24.5418 3.33039 -2.61289 -2.20753 0.037523 0.304691 -0.603587
249 1 42.2824 31.4099 3.29789 1.44236 -0.615003 -2.0374 -0.476017 -0.554731 -0.236128
250 2 25.4651 39.7282 50.0966 -1.20899 -1.24633 -0.102839 0.345157 0.266237 -0.0969756
251 1 4.16904 0.98331 -1.70554 -0.921268 3.94855 2.25149 -0.35867 0.356424 -0.196739
252 2 23.2886 41.1254 4.28465 1.09411 2.92537 2.14494 -0.42883 -0.0248631 -0.248794
253 1 45.2659 37.4628 18.1448 3.08997 2.48037 0.768778 0.00573772 -0.196366 -0.891505
254 1 55.1813 13.8235 34.6676 -0.31173 5.1793 -1.25823 -0.118039 0.467287 -0.0589653
255 1 35.6458 -3.68792 50.511 -0.700752 0.336956 -0.935393 -0.331669 0.357994 -0.725861
256 1 32.367 16.3894 6.73766 -0.504975 -2.59764 0.917617 -0.957917 -0.73596 0.127255
257 2 15.5472 10.6356 6.78368 2.20761 0.433165 0.429059 0.12208 0.254523 0.377468
258 1 -2.07404 42.491 14.6492 2.33137 3.27397 -3.6945 0.371983 -0.0673295 -0.0787702
259 2 46.1571 50.5035 33.4348 -0.791232 -0.296738 1.3363 0.430288 0.0259796 -0.150284
260 1 -1.1827 10.9236 45.5466 -1.07032 2.61305 -1.77419 0.15046 -0.294412 0.912577
261 1 52.9935 52.7704 39.2854 1.2616 -3.93548 0.701628 -0.122502 0.277525 0.0784579
262 2 22.9246 1.40223 47.0414 0.762281 -3.96026 -0.949773 0.366373 -0.185091 -0.0153863
263 1 22.6004 20.5215 24.8221 -0.960253 1.74552 1.53306 0.333447 0.629352 0.297352
264 2 49.4504 34.7228 38.4447 -1.67387 -2.64317 0.854451 -0.455738 -0.523201 0.36745
265 1 13.7749 29.789 43.4945 2.37357 5.1682 0.800696 -0.934168 -0.134002 -0.288037
266 1 12.7012 3.00257 36.5913 2.0119 -3.78371 2.46528 -0.204552 -0.901391 0.688208
267 1 52.9261 35.6632 54.321 1.63463 4.45242 -1.24829 -0.494677 -0.531256 -0.44449
268 1 29.7356 32.3586 34.531 -0.880844 5.94014 1.52179 -0.234409 0.0465539 -0.647592
269 1 46.2393 13.3547 44.9431 1.73222 0.0391583 0.997004 0.216125 0.233888 0.128996
270 1 46.9442 26.998 28.7962 2.02088 -3.33143 0.938078 -0.79087 -0.0645928 0.155719
271 1 9.54871 29.2428 45.3634 2.74459 -1.53035 1.93317 -0.0628343 0.237521 -0.603978
272 1 27.182 38.3739 13.1303 0.907269 0.882231 -0.328746 0.0843832 -0.0941713 -0.12261
273 1 19.8995 30.0479 52.4276 -0.198888 1.45152 -1.83115 -0.918929 0.569474 0.255356
274 1 14.971 -0.233834 53.1262 -2.31408 -2.45397 0.963236 -0.0448078 -0.00423783 -0.228099
275 1 26.0873 9.99602 53.4329 1.0866 0.736118 -1.94575 -0.662517 0.232043 0.246046
276 1 2.26496 39.3303 37.4185 0.221974 2.88636 -0.772396 0.17336 -0.251746 0.843406
277 1 16.8749 51.5493 33.8596 1.71066 -0.667258 1.47158 0.310103 -0.406598 -0.0808138
278 1 6.61161 -0.49408 45.3042 0.127144 2.21687 -3.5166 0.37495 -0.319442 0.0928176
279 1 38.5323 52.4092 14.1593 -1.71136 -3.32638 1.76405 0.299526 -0.728149 -0.328515
280 2 25.8041 9.1983 18.6641 3.1476 1.86482 0.619497 0.113468 0.333255 -0.543392
281 2 41.4029 23.8956 51.7067 0.731009 -0.297683 -0.423681 -0.104429 0.569126 -0.379127
282 2 17.0948 42.8046 38.2371 -1.01786 -0.262307 -0.410029 0.641112 -0.670241 0.448453
283 2 44.7423 -1.4448 10.848 0.947122 0.295716 1.75158 -0.190062 -0.562436 -0.660925
284 2 18.8193 52.0905 19.8266 -2.2192 -0.233886 -1.81453 -0.126435 0.139774 -0.442328
285 1 48.1701 5.99103 36.2806 -0.0617312 1.8991 2.50706 -0.262605 0.342805 -0.222515
286 1 20.0943 56.0833 13.6475 0.893121 1.74368 0.871015 -0.190217 -0.424764 0.598236
287 1 45.2563 47.8707 22.2653 -2.64284 -0.799356 -1.49049 -0.503161 0.498256 -0.436857
288 1 13.4874 43.4793 44.7958 1.2846 -2.49469 0.0440424 -0.324912 -0.826755 0.299398
289 1 2.49603 8.15838 29.4237 -0.19487 0.0362566 -1.18278 -0.62976 0.20621 -0.0370674
290 2 -1.05272 45.7713 3.00288 -3.16557 -2.93528 1.25194 0.145359 -0.0163235 -0.272578
291 2 17.1237 36.7084 23.9146 2.27623 -0.739467 0.838778 0.177834 -0.436455 -0.490913
292 2 13.6208 -1.71149 22.7878 -0.533857 -0.244222 2.14201 0.809085 0.699681 0.372164
293 1 3.57435 51.0768 3.50542 -1.72167 0.606921 0.634052 -0.101379 -0.888941 -0.377746
294 1 34.4779 44.6487 6.65499 0.491424 -0.613612 -0.706666 0.0215025 0.336324 -0.176895
295 1 13.4676 17.8057 12.1801 1.30737 -3.60329 -1.12212 0.151732 -0.110473 -0.0582284
296 2 23.2745 44.87 8.44479 1.76912 1.5947 0.209276 -0.23073 0.360225 0.320605
297 1 29.8018 18.6923 49.6859 -0.51893 -1.24503 3.69502 0.476774 -0.719007 -0.361382
298 1 38.3112 13.5971 45.4469 -0.263782 -1.2195 1.79715 -0.300324 0.0931258 0.359204
299 2 9.73491 9.72766 22.2684 0.857308 2.12577 0.666758 0.105877 -0.00579382 -0.227573
300 2 52.3353 37.835 6.21194 1.78105 -1.85305 -1.03814 0.030444 0.0470027 0.558732
301 2 0.907677 4.85355 -0.996928 1.29109 -2.072 1.18733 -0.314184 0.624584 0.725606
302 2 1.1287 47.5096 49.2602 -0.486461 -0.287742 -1.47491 -0.0435665 0.63829 -0.132828
303 2 39.3935 3.57969 28.6233 1.45347 2.64366 -1.37873 0.0587657 -0.661372 -0.54824
304 2 55.7522 49.1634 34.5033 0.905306 -0.121888 0.221032 0.922433 -0.819557 0.110745
305 2 23.5864 -0.110031 -1.12671 -2.01805 -1.40517 0.899209 0.0396169 -0.707439 0.094683
306 1 25.6705 41.0297 22.151 0.518851 1.48358 -2.29112 0.656851 -0.385814 -0.18482
307 2 35.1504 6.94648 39.4988 -2.26544 -1.44742 -0.623123 0.313182 -0.306839 -0.368388
308 2 3.65714 53.1193 7.09652 -1.126 -2.59023 -2.73727 0.0531379 -0.450762 0.334064
309 2 13.216 32.6894 9.84608 -2.18578 -0.236511 0.658589 -0.0573402 -0.36263 0.171173
310 1 40.1261 5.7676 8.18174 -0.250577 0.913749 0.879608 0.0868263 -0.383318 0.154667
311 2 37.9575 43.4833 20.0681 -0.48262 -0.968486 -3.62103 0.356961 -0.0709907 -0.560693
312 1 37.8503 6.4348 53.1791 -0.283366 -0.207477 -2.44379 -0.177551 -0.244286 0.154192
313 1 21.6207 5.17906 49.3634 2.87458 -3.72696 1.17534 -0.0405341 -0.335136 0.159063
314 2 54.1084 23.7563 19.4122 -1.63162 2.8682 1.13644 0.513236 -0.00467922 0.286367
315 2 19.6612 17.5275 49.111 2.66205 -2.11415 -1.81704 -0.36789 -0.619567 -0.5468
316 1 -2.27674 55.4059 10.0422 -0.516397 -0.539116 -0.274841 -0.39037 -0.00126105 0.29717
317 1 9.75377 21.3297 45.7061 0.323743 -2.51148 3.2301 -0.331495 -0.546142 0.221405
318 1 -3.48591 -2.23012 41.8906 -0.746396 1.11243 -1.17675 0.343464 0.0458453 -0.196274
319 1 13.1586 52.698 30.6759 3.37286 -4.83589 -2.54843 0.560448 -0.224601 -0.978651
320 1 16.2094 45.4268 29.1289 1.48053 1.74734 -0.585889 -0.0408378 -0.271016 0.135383
321 1 15.9889 15.3147 20.2317 4.2335 -0.979001 3.59039 0.0492108 0.315318 -0.806197
322 1 6.26564 47.1206 18.1671 -2.01523 -1.24409 -1.67522 0.0311252 0.0633433 -0.0761137
323 1 1.52345 41.2689 42.4522 -0.336022 0.30991 0.0627115 0.469529 -0.345592 0.140808
324 2 12.4365 28.8506 16.2954 -1.23803 -1.38411 1.69508 -0.398338 0.615341 0.289703
325 2 26.0681 46.4281 7.81726 0.954096 0.455459 -1.24467 0.0256253 -0.257546 0.310969
326 1 43.6303 33.9691 15.9837 2.70156 -2.06951 0.988161 0.195163 0.35339 -0.587492
327 2 46.3136 38.4387 11.365 0.861166 0.242082 4.08359 0.872932 -0.424728 -0.111816
328 1 16.8382 12.4657 23.7148 -1.02316 0.322106 0.7302 -0.540811 0.0659438 -0.0104117
329 1 31.8342 4.74515 20.2088 2.11313 -1.90609 -2.23434 0.638241 0.365767 0.00154397
330 2 20.1313 24.7732 15.093 -1.21105 -3.16683 -0.368526 -0.141591 -0.234406 -0.398868
331 1 32.4587 -2.34402 2.08182 -1.87058 -1.70471 -1.17033 -0.060334 0.0687789 0.29313
332 2 36.2821 54.7266 24.6884 -3.71695 1.33818 1.20937 -0.0189795 -0.386176 0.25005
333 1 27.4804 52.781 5.43946 3.35454 -1.64383 -1.98951 0.503584 -0.0238972 0.1545
334 1 38.9611 51.6005 44.5608 -0.123304 -2.11159 -2.40336 0.163119 -0.164184 -0.0452185
335 1 49.3386 52.6306 -1.62028 4.38784 -0.171856 2.61259 -0.398608 0.127339 -0.105196
336 1 45.2819 19.5287 13.0156 1.42919 0.083375 1.7555 -0.348862 -0.133011 0.280152
337 1 -3.01176 -2.42726 55.9737 -2.48909 4.9004 -2.63432 0.267324 -0.420925 0.392298
338 1 18.4937 48.5583 47.6097 -0.629665 0.840955 -2.74482 -0.146632 -0.0887634 -0.00236868
339 1 19.5585 18.5062 8.56793 4.30249 0.306896 -2.92866 0.0516432 -0.266895 -0.412607
340 2 0.300947 37.7936 16.7716 1.74605 1.49624 1.24153 0.347891 -0.400556 0.325679
341 1 49.6161 48.2157 55.367 -2.72154 1.63451 1.78787 0.321362 -0.0806172 -0.497682
342 1 14.2326 48.9245 40.5648 -5.52839 -0.7357 -0.55536 -0.439478 0.459408 0.404754
343 1 23.002 28.6081 49.4705 1.09236 0.365443 -1.51766 -0.365914 -0.0451123 0.0961099
344 2 31.2525 8.16364 31.0108 3.05064 -0.102012 -0.407903 -0.168779 -0.446699 -0.0245824
345 1 20.1452 9.38595 16.6357 -0.83078 -1.71249 -2.08029 -0.00968476 0.0764394 -0.018493
346 2 40.4449 36.0965 4.60014 -1.3079 2.00331 1.60855 -0.0910802 -0.337758 0.0318584