ITEM: TIMESTEP
22000009
ITEM: NUMBER OF ATOMS
13500
ITEM: BOX BOUNDS pp pp pp
-3.70204 56.202
-3.70204 56.202
-3.70204 56.202
ITEM: ATOMS id type x y z vx vy vz fx fy fz
1 1 26.0837 54.8788 24.3788 2.70622 -3.01309 -4.36438 -0.293319 -0.310623 -0.00870638
2 2 42.5112 36.7648 37.03 0.789934 -1.18492 -2.41184 0.0379765 -0.180219 -0.044544
3 2 44.3778 24.9351 17.8665 0.139403 2.15153 -2.64007 0.0855429 0.667997 0.11194
4 1 53.9132 13.2776 54.6984 -0.0466964 1.31057 -0.355558 0.217034 0.465987 -0.189869
5 1 30.7655 28.5837 25.9001 -1.18492 -2.10796 0.132635 -0.162067 -0.381295 0.171244
6 2 38.5186 42.2308 52.6899 1.35945 -0.61013 0.964971 -0.226705 0.239004 0.214339
7 1 43.9028 29.5046 16.3278 2.56643 0.980131 1.43884 0.171552 0.929147 -0.125058
8 1 1.95443 -0.642042 42.7554 5.319 -1.77664 0.0792173 0.0883095 0.540968 -0.287943
9 1 51.4026 28.6257 17.3238 -1.44697 -2.17344 0.788982 0.163579 -0.425909 0.149129
10 1 33.3699 53.1443 14.5719 -1.35261 0.525091 -2.21099 0.065883 -0.162908 -0.238606
11 2 33.009 43.5552 55.2044 -1.88633 1.27416 -1.14623 0.0652634 -0.520015 8.72869e-04
12 1 1.63127 47.955 -1.78535 -0.653918 -0.295083 1.5074 -0.0123982 -0.00500286 0.0306781
13 1 30.1507 6.16824 2.99044 -1.62604 -0.990597 -1.67826 0.0259567 -0.0500265 0.105544
14 1 13.2605 32.4349 36.4368 -1.58758 2.14888 2.80324 0.0670116 0.202916 0.148271
15 1 35.901 3.17959 48.1223 1.0486 -0.407845 -1.6568 0.244219 0.318914 -0.217447
16 2 45.4985 21.3599 21.7611 2.49622 -4.37658 1.13803 0.246179 0.225871 -0.405328
17 1 7.65661 1.83823 43.4393 0.261425 -2.73052 -3.23966 0.158635 -0.230382 -0.148263
18 1 52.8201 29.9004 42.7547 2.71404 -0.855829 1.92579 0.117703 -0.308261 -0.0718619
19 1 42.8448 15.7157 45.0803 -2.44534 1.09493 0.430276 0.0951444 0.570141 -0.578509
20 1 20.0892 9.8252 4.09328 0.737919 -2.69211 0.366909 0.167211 -0.126592 -0.0638729
21 2 49.1861 18.5051 41.438 -0.82764 2.33447 -1.72881 -0.0991059 0.117189 -0.0970541
22 1 54.7566 7.31302 2.04025 0.966136 -0.777838 1.75083 -0.143517 0.378947 -0.332846
23 2 24.1554 1.61634 3.10431 -0.0275113 1.86439 -0.357948 0.117072 0.605456 0.120181
24 2 32.1706 52.0494 54.7925 2.12756 -0.616632 0.88142 0.167906 0.295545 -0.109282
25 2 46.8255 14.5182 31.5403 -0.575358 -0.909115 0.344517 0.60437 -0.00706656 0.649315
26 1 -0.448256 27.172 -1.11659 -0.865823 -1.36043 1.28525 0.00723882 0.051161 0.25757
27 1 43.6731 0.929307 40.2586 -3.83658 -1.80401 -0.952967 -0.0651973 -0.648052 -0.612048
28 1 28.6651 -2.00393 32.5825 -2.14586 1.16571 1.43583 -0.326357 0.134575 -0.0389995
29 1 0.341142 33.2911 13.1531 -1.99115 0.360194 0.104634 -0.319364 0.286139 1.02875
30 1 16.7687 55.8091 0.825421 -2.24288 1.35359 1.02861 0.182954 -0.0624364 -0.483872
31 2 0.0301736 54.3386 18.2574 1.47395 -0.618891 0.257191 0.130628 -0.242864 -0.345117
32 1 45.736 48.3895 26.8172 0.735855 1.08675 -3.79447 -0.0150753 0.286553 -0.128777
33 1 9.41736 20.6691 29.0666 0.574015 2.00197 0.00351845 -0.103028 0.159418 0.0320459
34 1 44.8511 21.1464 29.8048 2.15046 -2.91422 0.528954 -0.0957634 0.0260958 0.0930092
35 2 34.8553 -2.76908 20.4872 1.94036 2.29766 0.532736 0.17051 0.408449 0.128275
36 1 39.1292 36.5132 7.15441 -3.48291 -0.653778 -0.432333 -0.0849679 -0.42211 -0.00808704
37 1 -1.19288 3.07567 31.5693 -1.01899 0.376045 -0.538103 0.211036 -0.478198 -1.21693
38 2 49.8229 4.45352 49.2077 0.223962 0.311549 1.60867 0.323135 -0.383565 -0.548382
39 2 24.9076 34.6838 51.1841 -1.13092 -3.17621 -2.48383 0.029458 0.400825 -0.245503
40 2 51.0771 38.1737 40.3808 1.92616 -0.623458 -0.549737 0.432844 0.77801 0.0345861
41 1 8.65408 23.473 19.9914 -0.757782 -1.52887 2.81501 -0.315467 0.367885 -0.204292
42 1 -2.80083 54.9539 38.4131 0.135054 1.61782 -0.723694 -0.253279 -0.431205 0.27436
43 1 33.4874 3.65227 48.3497 -3.00323 -4.16336 2.29476 -1.02033 -0.907006 0.434916
44 1 46.5672 19.3863 15.1729 -2.52145 1.36885 0.935564 -0.0590264 0.056552 0.136812
45 1 23.1414 33.8626 53.3739 0.238252 0.252598 0.565045 0.62596 -0.448881 -0.130495
46 1 37.6825 40.1152 -1.05999 2.34689 0.346523 -2.82236 -0.465086 -0.417617 0.485314
47 1 46.1606 10.8861 14.8093 3.11878 0.0931476 -1.27931 -0.186227 0.436749 0.475451
48 2 12.3109 16.4997 19.3824 0.937772 1.4656 -1.38944 -0.0293834 0.485895 -0.356677
49 1 7.91218 30.4163 0.989098 1.53849 1.52934 -1.34396 -0.291555 0.808078 0.279026
50 1 34.4287 4.59294 14.4467 -4.87947 2.9072 1.31217 0.697378 -0.287488 -0.629414
51 1 12.309 32.466 53.0192 -1.20517 1.19191 -1.49791 -0.280592 -0.307611 0.156426
52 2 30.4282 29.4463 34.8833 0.798287 1.32772 3.55435 -0.156007 0.700577 -0.379337
53 1 36.0069 37.0972 11.3043 0.689497 0.00673888 0.864534 -0.0329286 0.76338 -0.384906
54 1 34.7054 1.481 3.92044 0.181274 1.78235 -1.09581 0.414752 0.303562 0.107082
55 1 33.9549 -1.64109 16.9037 1.51428 -0.141589 2.06949 0.777997 -0.503456 -0.217077
56 1 26.792 26.1935 40.0249 -2.74375 -0.575424 -0.405717 0.115963 -0.216007 0.815992
57 1 -2.76478 50.8251 41.4884 -2.52431 -0.656281 1.05655 -1.10259 -0.114533 -0.312098
58 2 45.3017 22.2305 -1.53316 -2.12433 1.29376 0.647388 -0.364943 -0.264098 -0.382911
59 1 21.2421 -2.32597 36.2907 1.61372 0.372139 -1.9278 0.433387 -0.429673 -0.0228967
60 1 12.783 6.77962 55.1755 3.48942 2.59079 0.0632538 0.372315 -0.318367 -0.170498
61 1 35.8195 31.0538 33.3107 -1.05964 -0.356922 0.284104 0.162876 0.202354 -0.322439
62 2 17.7114 48.1063 37.7847 -1.91366 0.434721 -2.14189 -0.0389025 0.201576 -0.24149
63 1 41.7708 9.70382 24.2969 -2.44902 1.38064 0.446685 -0.624094 1.40756 0.17645
64 1 8.83904 5.56089 10.5422 1.24999 -0.18898 1.49295 -0.234424 0.614205 -0.385489
65 1 8.25738 29.6376 51.3931 1.20883 4.89553 -2.0343 -0.37886 0.154125 0.0964171
66 1 18.4372 53.5256 46.2948 -1.45438 -0.92141 -0.126539 0.486364 0.755497 -0.375165
67 1 21.116 12.5333 54.3772 0.102396 0.976572 -0.296529 -0.196492 0.812239 -0.574588
68 1 1.96867 22.0621 8.01986 -0.29051 2.83161 0.556939 -0.0698935 0.10151 -0.390868
69 1 21.7151 48.3161 53.6868 1.10976 -1.05662 0.50766 -0.426007 -0.689461 -0.046748
70 1 27.7355 49.4236 23.1785 -0.652119 1.83017 0.923741 0.248283 0.016504 -0.68362
71 2 41.4925 26.3733 4.30365 -1.92094 1.42146 -3.40981 -0.299261 -0.142321 0.667372
72 2 47.8021 28.9407 50.477 -0.267025 1.61829 -0.0463092 -0.545191 0.276897 -0.149936
73 1 8.42643 11.347 27.7869 1.76787 0.631391 -1.35832 -0.300117 -0.869756 0.375135
74 1 36.3499 8.28214 -3.19096 0.216479 -1.29813 0.251987 0.231843 -0.254055 -0.564454
75 1 36.3995 22.8597 -3.08913 -1.69582 -0.786951 -0.502105 0.345541 -0.0292144 0.0543439
76 1 18.6044 5.56201 38.5728 -2.02575 -0.564051 1.12897 -0.195951 -0.421496 0.350228
77 2 14.9305 19.0297 -2.48895 -2.18469 0.67027 -0.522772 0.259103 0.301778 0.0875002
78 1 38.7229 -0.593796 49.2779 0.846828 2.66535 -0.386646 0.784174 -0.077863 -0.449625
79 1 0.955514 39.1255 6.70817 1.33742 0.583174 -1.80567 -0.0835145 -0.120322 0.306531
80 1 39.606 39.8582 -2.87429 1.13155 2.5921 2.30264 -0.226664 0.500089 -0.0683216
81 1 28.0884 36.2299 -0.247951 0.225703 0.592337 -1.77756 -0.513326 0.463602 -0.136501
82 1 48.7045 -0.275561 38.7192 1.79631 1.26602 -0.889441 0.229868 -0.197363 -0.253536
83 2 52.5564 46.9413 13.9245 1.20881 -3.59572 1.27803 0.508481 0.192312 -0.42966
84 1 45.4062 7.59792 39.6112 1.61061 -0.325403 1.14457 0.381679 0.179239 -0.456746
85 1 41.043 50.4204 -0.921396 0.259731 -0.318618 -1.43264 -0.307963 0.204905 0.614345
86 1 39.3559 15.5277 7.14255 -1.93768 0.56833 -0.461857 -0.0956773 0.559494 -0.0426424
87 1 21.7457 3.19318 44.5417 -1.00963 -0.364186 -0.873623 -0.16072 -0.0567824 0.161486
88 1 -2.63028 13.4021 6.07238 1.55914 -1.22857 0.152098 -0.649187 -0.614899 -0.00640909
89 1 13.3112 49.9105 33.7452 -1.39153 -2.11874 1.07661 -0.484875 -0.586655 -0.291672
90 1 45.4938 48.2375 32.2889 0.006656 -0.727964 -2.67933 0.334884 0.717478 -0.0396234
91 1 21.082 29.8767 4.29695 4.34293 -0.842255 1.19054 -0.319241 0.326024 0.709543
92 1 55.8193 -0.396619 40.1439 3.58672 -0.807717 -0.236795 -0.458695 0.157045 -0.272822
93 2 19.8195 47.4569 33.09 0.983273 -1.29733 -0.169019 0.10016 -0.088588 0.132138
94 2 4.88988 47.5866 30.2173 0.666416 0.135868 -0.834801 -0.244521 -0.605654 0.122583
95 1 52.0146 51.4853 29.0522 -0.75742 0.719415 0.485243 -0.606978 -0.0244876 -0.27493
96 1 43.2669 -3.3118 37.9889 2.42575 2.30183 1.37632 0.0386115 0.368967 0.375748
97 1 56.1327 28.0929 20.8172 1.82579 -0.71494 -0.832555 -0.407927 -0.187088 -0.393951
98 1 11.2816 20.9539 15.9499 -3.27877 -3.72996 -0.250241 -0.158039 -0.248695 0.262677
99 1 8.6401 33.8679 26.8573 0.41619 -1.0361 -0.836168 0.663199 0.302971 0.280207
100 2 54.7987 54.7248 11.857 -0.181523 2.71576 -0.868037 0.415636 0.15879 0.530015
101 2 6.27443 11.0537 15.4605 -0.170677 1.81793 0.187439 -0.259289 0.269051 0.301872
102 1 43.102 34.7835 54.0597 -2.04971 0.896439 -1.98685 0.00601744 -0.154929 -0.403074
103 1 7.38506 52.1147 5.15828 2.44601 0.455074 0.974295 0.577398 0.58467 0.262123
104 1 30.5293 40.5249 37.0669 1.38429 -0.646442 -2.87464 0.0877725 -0.11212 0.00990251
105 1 9.42291 41.0277 45.6027 -1.9543 -2.1751 1.30829 0.200374 -0.512195 -0.160473
106 1 7.61611 26.2348 4.71248 -0.474719 1.33436 -2.13882 -0.0977102 0.156383 -0.591179
107 1 26.1089 7.50527 24.9607 -1.00746 1.66867 -3.57311 0.110717 0.386689 0.0431046
108 2 0.685465 33.5561 39.9964 2.70595 0.360633 -4.49639 0.445769 -0.0917721 -0.0299662
109 2 53.465 -1.0691 28.741 0.801588 -0.0266418 -0.41324 -0.0365592 0.295966 0.375088
110 2 32.7748 21.7238 7.33449 -1.04097 -2.94274 -1.02364 0.315675 -0.749143 0.208105
111 1 42.4159 44.074 24.6871 -1.69234 -1.5496 3.13375 0.886781 0.242375 0.115481
112 1 17.5252 10.403 40.5856 3.57172 1.45394 1.80058 0.222097 -0.517778 -0.112207
113 1 4.61181 56.1918 44.1941 1.14657 1.27008 -1.03164 -0.516355 0.404837 0.00176385
114 1 0.975589 51.8212 34.715 3.4441 0.39666 -1.68454 0.553881 -0.487872 -0.38229
115 2 53.6029 9.26775 43.811 -1.32472 1.35489 -1.54238 0.306927 0.675712 0.345236
116 1 11.8506 36.1017 34.1757 1.3476 -2.46374 -0.405651 -0.459161 -0.175262 -0.45402
117 1 33.384 29.5509 0.491418 -0.762788 2.63794 2.47556 0.485834 -0.337635 0.0980351
118 1 35.9389 -2.67378 43.3794 -0.699778 2.6528 -1.74405 0.168212 0.152499 -0.141342
119 1 -0.210561 49.0916 38.2789 3.4464 -0.74947 1.92674 -0.00834922 0.237628 0.780865
120 1 49.7635 1.59014 -2.51742 -3.09693 -0.0452647 -1.76653 0.072715 -0.129705 -0.433286
121 1 47.4915 13.4813 34.222 -1.68432 -0.0260639 2.43088 0.374401 0.334695 0.385066
122 1 18.8431 22.5244 32.3987 1.29343 -3.44085 0.64727 0.432065 0.172669 -0.195139
123 1 25.8746 25.7828 22.8767 -0.569601 -0.965989 -1.07407 0.402941 -0.208816 0.0360802
124 1 10.3925 54.1693 25.9219 3.13601 1.33923 -2.66411 -0.567184 -0.565849 0.202301
125 2 7.60172 27.7778 46.6436 -0.111798 0.120364 -1.12471 -0.17861 -0.480784 0.361835
126 2 32.2468 22.6884 34.5068 1.73821 0.646978 0.249702 -0.19063 -0.470657 -0.202681
127 1 22.8919 21.6792 34.9384 -3.57313 -1.75935 -1.19804 -0.609827 0.198853 0.580197
128 2 54.3459 40.0842 7.12259 -0.21727 0.225681 -1.51932 -1.0837 0.0233072 0.0559818
129 1 32.0479 55.4551 44.015 -0.443822 -1.40321 1.20385 0.291804 -0.400621 -0.603426
130 2 11.1795 55.4016 40.9094 -0.0272111 -1.55117 -1.41668 -0.144854 -0.124195 -0.357708
131 1 11.6171 23.9079 -2.07353 -2.301 3.63456 -0.809342 0.370832 0.337898 0.190241
132 1 22.3155 36.9598 55.2814 -2.86569 -0.366087 1.36474 0.194622 -0.296314 0.650949
133 2 3.82046 24.8838 42.1811 0.360668 2.12997 -1.30401 -0.165059 -0.540164 0.29913
134 1 18.6152 39.06 24.4977 -1.02853 1.82271 -0.0385138 0.112042 -0.260813 0.569321
135 2 18.6808 3.56666 54.1414 0.234246 -1.7797 -0.231914 -0.600613 0.66102 -0.156461
136 1 53.3814 49.8825 27.8526 0.830328 4.73085 -0.784823 -0.163019 0.27756 -0.529873
137 2 34.4537 50.0864 20.5177 -1.2325 0.156368 0.845202 -0.29494 -0.331673 -0.197578
138 1 24.0967 22.8594 39.8899 -0.692615 -0.601444 -0.216583 0.985734 -0.13114 -0.17271
139 1 -0.84078 32.9008 33.8742 1.95938 -0.789832 1.86701 -0.43591 -0.337516 -0.223042
140 1 53.5767 42.2748 37.9312 -0.5155 -0.104663 -1.59622 -0.802142 -0.192336 0.034275
141 1 20.912 -0.67393 27.0095 1.62611 0.0901736 -2.04905 0.313577 0.292276 -0.188451
142 1 14.7928 5.25074 41.1809 1.3989 1.1063 2.65557 0.638454 -0.0305626 0.0792791
143 1 15.1659 22.5467 29.6408 0.875343 4.18546 -0.367524 0.21567 0.172794 -0.353384
144 1 26.6816 51.3626 38.0661 -2.8943 -0.918722 0.43594 -0.320741 0.291273 -0.447553
145 2 26.1223 -0.0625072 5.01459 0.578679 -1.52076 0.183149 0.476525 0.395355 0.0208015
146 2 55.4129 36.0768 26.1939 -0.967677 0.623988 -1.44791 -0.0203105 -0.224447 0.0594102
147 2 44.6559 53.1468 31.9446 0.871438 -0.971092 -1.116 0.541793 0.19625 -0.208739
148 1 16.5864 14.7361 54.1164 -0.149821 1.14491 -3.922 -0.158989 -0.201319 0.721823
149 1 -1.09987 32.0255 6.9009 -1.27673 -0.641156 -0.907958 0.0520828 -0.618773 0.229434
150 2 24.6454 29.7806 12.2574 3.39013 0.48185 3.99043 -0.429831 -0.38519 0.0241509
151 1 11.8314 5.53091 19.5216 -2.06737 3.0414 -0.877251 -0.423436 -0.704746 0.0686795
152 2 42.7467 35.0115 13.5701 1.13469 2.03768 2.89645 0.864275 -0.0875781 -0.0361403
153 1 14.127 36.5633 37.8306 -0.516795 -1.50024 -0.117735 -0.201128 -0.0485603 0.0679624
154 2 20.7726 10.629 18.9192 -0.3948 -0.389747 -1.71229 -0.44077 0.036772 0.163242
155 1 54.7937 0.931585 12.8982 -1.7896 1.82834 -0.206067 0.101064 -0.280961 -0.0838359
156 1 55.7789 31.8974 3.46953 2.61225 -0.667227 -1.32149 0.473567 -0.218006 0.0748362
157 1 42.842 53.5144 29.5989 -2.71375 -0.18158 -2.15753 0.402548 0.274955 0.179553
158 1 18.0618 32.3575 25.9938 -2.15654 -2.03859 -0.0240478 -0.550079 -0.326624 0.753056
159 1 40.0622 22.8212 47.3644 -4.01821 0.114595 -2.50036 0.205112 0.107358 -0.273412
160 1 44.9838 29.5438 45.7722 -3.3823 -3.83241 -0.190943 0.279649 -0.0970778 -0.21613
161 1 37.46 39.9501 23.7641 4.38321 3.16557 -1.9734 0.0314849 0.288777 -0.707117
162 1 48.1818 51.9151 42.2521 1.13221 -1.14808 0.872856 0.224291 -0.370715 -0.086999
163 1 38.9761 9.41482 -3.24335 -1.36004 -1.08952 -1.33293 -0.328089 -0.305432 0.141559
164 1 37.8079 28.0357 25.2572 1.18773 3.37271 0.485529 0.123747 -0.094729 0.212177
165 1 6.68214 11.0312 10.7108 1.25808 -0.415958 -0.302987 0.0702732 0.346868 -0.142097
166 1 16.5913 42.2747 21.4877 1.54909 -0.0563774 -0.575362 -0.54153 -0.164944 0.0912593
167 1 55.4042 49.7327 37.1854 3.95043 -0.432936 -0.731168 0.235816 -0.0341618 -0.0678886
168 1 18.4462 44.5501 8.58856 3.60362 -0.338424 3.22194 0.28522 -0.934068 0.128011
169 1 42.0384 41.438 38.323 1.76922 1.08128 0.438778 0.130024 -0.369207 0.297579
170 1 12.6003 26.2334 46.1778 -3.95463 -0.204863 -1.31933 -0.100617 -0.11576 -0.580473
171 2 29.9985 25.5301 32.2797 -1.95244 -0.0535255 0.75609 0.260719 0.257136 -0.304632
172 1 -3.59038 5.20076 34.3523 -0.313424 0.299667 -0.385643 -0.464283 -0.145272 -0.66982
173 1 52.9005 -1.40016 -2.42267 -0.619535 -3.53528 -0.969041 0.290127 0.427438 0.551836
174 2 22.1935 2.30313 0.612642 -0.432177 0.378372 1.49265 1.12405 -0.257013 -0.0687313
175 2 13.5544 30.4545 38.2087 1.69905 -1.9248 -0.344177 0.415486 0.274529 -0.172799
176 1 24.3642 25.7823 2.52746 2.92657 -0.909998 0.246375 0.963628 0.0212001 1.22235
177 1 47.5676 13.1921 -0.65437 0.421355 -0.50737 -2.10076 -0.542755 0.0695918 -0.205039
178 2 8.68348 41.6344 39.6263 -1.33078 -1.18338 -0.963596 -0.0709926 0.0841726 0.340744
179 1 8.79486 33.6034 35.965 2.18909 -3.46292 1.93252 -0.0223316 -0.123083 -0.320463
180 1 10.5615 5.3034 45.2052 -3.73444 1.01108 -1.97796 -0.674373 0.561376 -0.242691
181 2 38.8315 -3.36868 1.46377 -3.19234 0.239562 -0.508099 0.23049 0.145709 0.259275
182 1 12.0394 28.8901 29.7508 -2.61531 -4.08017 -1.75034 -0.428831 0.492727 -0.222946
183 2 0.85093 49.6298 53.6933 -1.41512 2.80485 -1.37254 -0.558189 -0.135071 -0.511216
184 2 35.7201 5.52756 17.1154 0.971268 3.3706 -0.098103 0.203568 -0.0774139 -0.540549
185 1 43.0276 -0.451144 -3.45604 -1.59236 0.750957 -0.971733 0.874868 -0.00963517 -0.673444
186 1 53.6683 46.5166 20.45 1.77248 -1.8361 -0.284983 0.0409144 0.381953 0.181718
187 1 33.9391 49.8783 50.6793 -0.956159 1.79319 0.137674 -0.00342234 0.37354 -0.480662
188 2 5.45328 31.9199 1.98535 -1.74808 -0.114635 -1.30589 -0.508569 -0.92949 -0.239474
189 1 14.3428 47.7063 50.6725 1.28031 1.16308 3.87875 -0.753954 0.0912599 0.844772
190 2 -2.95671 0.483171 49.6028 0.626769 1.85978 1.57666 -0.203435 -0.479463 0.662402
191 1 26.431 9.78749 46.1539 0.156206 1.1402 0.0724841 0.496093 0.499313 -0.268051
192 2 24.4124 49.3793 38.8966 -0.72869 0.780245 -0.495456 0.38312 -0.0291248 -0.00120046
193 1 30.9074 46.7743 1.76981 1.98703 0.475378 -0.0542058 0.119576 0.471028 -0.282738
194 2 43.3281 44.6234 47.8245 0.529066 0.26747 3.15191 -0.206222 -0.109943 0.427713
195 2 18.7104 42.2307 32.2602 -1.81156 -0.735308 -1.35364 0.135523 -0.312965 -0.292506
196 1 26.8774 0.446423 7.47387 0.896465 -1.10971 -1.11548 -0.166612 0.0622174 0.114897
197 1 1.9184 24.6059 30.7257 0.00202521 -2.07481 1.14816 0.113639 0.265235 -0.472546
198 1 34.0423 15.1829 41.947 -2.55685 -1.49458 1.96105 0.371611 0.201215 -0.126125
199 1 23.6781 -1.46309 12.8116 2.44703 -0.412201 0.424097 0.471812 0.0208583 -0.367519
200 1 38.6892 16.817 -0.277936 -0.140137 -1.18626 0.0615189 -0.143901 0.983719 0.822619
201 1 55.1661 5.10799 10.5552 0.61694 -1.31092 -1.42698 0.119618 0.0210291 -0.244764
202 1 46.8245 -0.845007 37.0264 -0.695131 1.48091 -1.53086 0.0630085 -0.145793 0.00595785
203 1 21.5048 0.119439 36.8814 0.222418 -4.03575 -2.01581 -0.672065 0.346691 -0.23823
204 1 17.5761 38.3216 40.2461 -3.72541 -0.956582 2.04092 0.33991 0.363516 -0.0607774
205 2 13.813 2.1144 54.0706 0.584945 0.224346 -0.943015 -0.358544 -0.0126963 0.0325858
206 1 48.3848 25.7473 27.2337 -2.69553 -0.153187 -3.77266 0.737087 -0.0955459 -0.222776
207 2 0.479753 52.7316 6.83428 -1.80039 0.529454 -0.815754 -0.416987 0.364885 -0.326105
208 1 27.6546 1.26583 -3.39813 -1.28117 -0.963125 -3.09629 -0.334572 -0.17393 -0.167535
209 2 28.4434 9.62762 -2.86546 1.74203 0.833063 -2.27887 0.136903 0.417924 -0.253448
210 2 1.11982 28.7703 31.9938 -0.83637 -2.22036 -1.80271 0.150033 -0.25176 0.430859
211 1 36.1942 17.1769 28.2077 2.15161 -2.28044 -2.43242 -0.333418 0.14926 0.385303
212 1 3.29826 23.0126 37.5397 -1.46068 -1.18878 0.736252 -0.544069 0.253573 0.446279
213 1 5.01612 16.6779 0.636002 6.5111 -1.07644 4.76167 0.0623413 -0.149093 0.341694
214 1 51.6179 12.4724 19.2555 -1.34855 -2.12436 0.588484 -0.223136 -0.00999793 -0.61964
215 2 4.54393 19.2769 19.6891 -1.95368 -2.68401 1.03166 0.262565 0.169781 -0.227253
216 2 48.7412 39.7479 33.4061 -0.301656 0.897348 0.223741 -1.27483 -0.661036 -0.584587
217 1 37.0102 13.8603 33.216 1.93932 1.64221 2.2895 0.491348 -0.380588 0.486443
218 2 36.3318 11.9092 44.4384 -3.03673 0.854897 0.945288 0.8266 0.0317066 0.450641
219 2 32.5219 50.151 25.0947 -0.48856 -0.743551 -2.68262 -0.291599 0.747797 -0.268477
220 1 41.4283 5.25736 41.1919 2.191 -1.24678 -3.56427 -0.0651008 -0.800614 0.116278
221 2 51.587 29.3112 54.0134 0.959245 0.437835 1.28725 -0.868948 0.187323 0.0230604
222 1 43.8393 13.5714 44.4013 -4.2839 -1.09721 0.0355695 -0.248563 -0.1845 0.284177
223 2 18.8138 8.05953 52.5683 2.33061 0.756797 -0.412379 -0.311596 0.266899 -0.892927
224 1 2.25903 17.6172 18.8771 1.08278 9.39558e-05 1.90715 0.131952 0.207083 -0.0466843
225 1 28.6235 50.6153 27.7518 -3.12603 1.31613 1.51236 0.854204 0.141239 0.357907
226 1 26.1128 48.9876 37.0704 -2.37284 0.203654 -2.1155 0.585752 -0.00753569 -0.101136
227 1 50.0018 30.1431 28.9786 -0.510257 -5.2255 0.371063 1.01803 0.305976 -0.469245
228 1 6.24539 2.43773 28.293 2.41329 1.80384 0.478216 -0.0896324 0.278685 0.151302
229 1 1.10826 50.8613 20.6429 1.81512 1.76483 3.07318 -0.00819643 -0.121198 1.1749
230 1 4.16755 6.42704 -2.59364 4.18012 1.92758 1.29995 0.558662 0.489403 -0.3516
231 1 46.0173 10.7057 28.1765 2.78655 -3.64698 -0.253567 0.316504 0.276277 -0.176836
232 2 10.225 2.4892 45.0738 -0.553863 -2.56468 -1.84725 -0.651036 0.0974814 -0.57897
233 2 16.3931 39.8346 45.8106 -0.856816 -2.87802 -0.053459 -0.426488 -0.0369053 -0.548319
234 1 38.3889 31.4903 8.71875 2.9417 -0.024064 -0.735119 0.791687 0.0364985 0.509268
235 1 24.5182 45.8704 23.5672 1.4526 2.13309 -0.226599 0.135301 -0.152971 0.153138
236 1 14.857 48.1033 8.36992 0.0651416 -2.39262 -3.92531 0.275454 -0.529718 -0.595686
237 1 52.2317 -0.160309 47.0186 -0.0534306 -1.31035 1.66602 -0.0704112 0.437006 -0.05587
238 1 -2.76969 12.7751 8.56202 -0.569472 -2.10896 1.85 -0.232399 -0.604594 0.0714697
239 2 7.61766 49.4531 26.3005 -1.5253 0.171162 -1.46812 -0.00549045 -0.391072 0.33151
240 1 18.1641 40.1569 36.3102 0.756306 -0.781061 -1.54994 -0.0657841 0.596012 0.336166
241 2 35.4749 -2.06214 25.2707 -0.517913 1.82128 -1.12423 0.453675 0.147613 -0.334835
242 2 34.9086 10.5099 42.1361 1.50381 2.09263 -0.840714 -0.040987 0.115142 -0.515948
243 1 38.167 26.3535 27.3501 1.23108 0.514361 -1.21337 0.255716 0.729265 -0.0874837
244 2 27.3521 -2.89294 23.7505 2.34271 0.0713349 1.22292 0.283455 0.00152833 0.812079
245 1 55.4694 55.4103 42.0536 -1.58821 -0.600751 -1.76043 -0.226067 -0.210572 -0.16696
246 2 24.5432 -2.94221 41.6133 -2.86802 0.321548 -0.957552 0.79903 0.455979 -0.312494
247 1 46.8462 44.7513 24.4987 -1.50132 -0.831934 0.411049 -0.0959458 -0.0395346 -0.36644
248 2 40.757 -2.68372 24.5056 3.19341 -2.09017 -2.89965 -0.185836 0.370974 -0.323661
249 1 42.2958 31.3932 3.26631 0.371616 -1.81144 -2.23856 -0.5004 -0.555551 0.0444543
250 2 25.4523 39.7146 50.0953 -0.56696 -0.752658 -0.222446 0.506159 0.383987 -0.0646936
251 1 4.14998 1.04061 -1.67866 -1.65766 4.26746 1.75045 -0.322155 -0.0275226 -0.245717
252 2 23.2996 41.1655 4.3106 0.509915 2.6514 1.6748 -0.345191 -0.319576 -0.366118
253 1 45.309 37.494 18.1422 2.89498 1.85303 -1.05077 -0.179942 -0.36618 -0.785585
254 1 55.1765 13.9 34.6501 -0.550276 5.69858 -1.2546 -0.109503 0.0565673 0.067169
255 1 35.6323 -3.67929 50.4886 -1.22914 1.05743 -2.36776 -0.14902 0.292137 -0.600058
256 1 32.3465 16.3423 6.75112 -2.4157 -4.02185 1.09882 -0.813603 -0.598734 0.0506462
257 2 15.5779 10.6433 6.79264 2.17949 0.7217 0.963963 -0.155705 0.125199 0.344608
258 1 -2.03778 42.5345 14.5969 2.98549 2.72047 -3.65509 0.24416 -0.421412 0.0991074
259 2 46.1507 50.5001 33.4519 -0.306803 -0.368753 1.05894 0.212194 -0.112051 -0.19976
260 1 -1.19569 10.9544 45.5366 -0.568073 1.85243 0.241541 0.295168 -0.389381 0.932628
261 1 53.0099 52.7215 39.2967 0.882049 -3.1922 0.80091 -0.216484 0.373259 0.00871849
262 2 22.9384 1.34514 47.0291 1.19259 -3.97864 -0.913531 0.214677 0.124865 0.0489828
263 1 22.5923 20.5545 24.8469 -0.150574 2.98088 1.9767 0.398222 0.537215 0.135317
264 2 49.4236 34.6821 38.4605 -2.28372 -3.13998 1.29252 -0.376973 -0.166483 0.226225
265 1 13.792 29.8578 43.5021 0.06307 4.56954 0.18706 -1.1752 -0.38364 -0.278041
266 1 12.7259 2.93778 36.6351 1.64231 -5.15289 3.62827 -0.122567 -0.379276 0.408044
267 1 52.9418 35.7166 54.2991 0.396943 3.04894 -1.97006 -0.637201 -0.750971 -0.224574
268 1 29.7209 32.4407 34.5427 -1.17471 5.6309 0.108736 -0.0423161 -0.308671 -0.64328
269 1 46.2662 13.3584 44.9591 1.89667 0.593244 1.12301 -0.0484123 0.281617 -0.00917342
270 1 46.9597 26.9506 28.8102 -0.0213301 -3.46152 0.947129 -1.03264 -0.0620015 -0.133719
271 1 9.58397 29.2256 45.3811 2.30914 -0.932651 0.430867 -0.32367 0.295938 -0.771402
272 1 27.1953 38.3844 13.1239 0.934146 0.489425 -0.448068 -0.0489559 -0.272328 0.0112257
273 1 19.8838 30.0765 52.4086 -1.92636 2.58758 -0.960702 -0.695685 0.476771 0.5203
274 1 14.9391 -0.268332 53.1374 -2.06692 -2.25759 0.49433 0.260462 0.16932 -0.200344
275 1 26.0928 10.0087 53.411 -0.271553 1.14662 -1.33864 -0.594668 0.154609 0.300931
276 1 2.26873 39.3659 37.421 0.401452 2.03435 1.06653 0.00399047 -0.514988 0.846421
277 1 16.903 51.5351 33.8788 2.35528 -1.51023 1.18982 0.297682 -0.38317 -0.172896
278 1 6.61838 -0.469939 45.258 0.972555 1.34935 -3.18965 0.40436 -0.467235 0.189342
279 1 38.5145 52.3549 14.1774 -0.832486 -4.45846 0.840149 0.507522 -0.340205 -0.506172
280 2 25.8484 9.22668 18.6662 3.14606 2.27539 -0.289334 -0.100449 0.228983 -0.639615
281 2 41.412 23.897 51.6979 0.448638 0.468692 -0.978481 -0.265406 0.448777 -0.352203
282 2 17.0867 42.7957 38.2357 -0.117611 -1.05081 0.0824705 0.527012 -0.383059 0.201603
283 2 44.754 -1.4475 10.8646 0.5964 -0.478003 0.715461 -0.254724 -0.433885 -0.696345
284 2 18.787 52.0897 19.797 -2.33922 -0.0448792 -2.35844 -0.0498291 0.114087 -0.303726
285 1 48.1659 6.02028 36.3113 -0.697118 2.30974 1.72202 -0.322712 0.0670105 -0.484597
286 1 20.1031 56.1022 13.6676 0.363069 0.744236 2.04337 -0.297485 -0.487354 0.492203
287 1 45.2132 47.8682 22.2383 -3.59989 0.312759 -2.30906 -0.404521 0.52836 -0.342389
288 1 13.4993 43.4337 44.8008 0.474053 -4.06025 0.478275 -0.400121 -0.615409 0.0972625
289 1 2.4835 8.16098 29.4068 -1.39913 0.427005 -1.25351 -0.486477 0.152924 -0.0415173
290 2 -1.09655 45.7322 3.01687 -2.94535 -2.69118 0.928425 0.126826 0.303196 -0.140968
291 2 17.1563 36.6943 23.9212 2.40988 -1.30519 0.139161 0.0160186 -0.325236 -0.432405
292 2 13.6214 -1.70851 22.821 0.694433 0.85144 2.60374 0.801062 0.741308 0.237955
293 1 3.54819 51.0734 3.50806 -1.85485 -1.1999 -0.074911 -0.0206718 -0.774481 -0.269463
294 1 34.485 44.6468 6.64138 0.446998 0.296657 -1.13987 -0.0604246 0.502496 -0.227717
295 1 13.4877 17.7543 12.1632 1.65013 -3.63548 -1.18762 0.183654 0.064121 -0.0015613
296 2 23.2957 44.8966 8.45014 1.21347 2.09239 0.652867 -0.490361 0.31901 0.270559
297 1 29.8014 18.6649 49.7315 0.398221 -2.51856 2.58172 0.362182 -0.443933 -0.64558
298 1 38.3046 13.5804 45.4772 -0.680472 -1.11652 2.35937 -0.0814463 8.33185e-04 0.163195
299 2 9.74713 9.75591 22.2751 0.983204 1.97864 0.308425 0.0666919 -0.166111 -0.25428
300 2 52.3602 37.811 6.20298 1.52885 -1.60868 -0.0845925 -0.347195 0.256686 0.705433
301 2 0.920419 4.83052 -0.974675 0.620273 -1.09539 2.09497 -0.581451 0.627158 0.461715
302 2 1.12079 47.5133 49.2396 -0.46261 0.699161 -1.58832 0.0702343 0.665289 -0.0328088
303 2 39.4148 3.60809 28.5998 1.48906 1.52376 -1.91515 -2.11374e-04 -0.808344 -0.184959
304 2 55.7756 49.1542 34.5077 2.23624 -1.3141 0.339072 0.844167 -0.753175 0.0515139
305 2 23.5596 -0.136958 -1.11467 -1.74681 -2.1978 0.967441 0.281596 -0.364217 -0.0038221
306 1 25.6867 41.0446 22.1165 1.71016 0.527454 -2.60662 0.442015 -0.49043 -0.124043
307 2 35.123 6.92308 39.4874 -1.66563 -1.72579 -1.05495 0.475023 -0.080711 -0.216572
308 2 3.64121 53.0813 7.06167 -1.0023 -2.9035 -2.09255 0.105057 -0.00395505 0.492655
309 2 13.1846 32.6832 9.85611 -2.21405 -0.634536 0.860089 0.0035295 -0.169955 0.101926
310 1 40.1246 5.77276 8.19498 -0.0424517 -0.0994491 1.08103 0.0986732 -0.5245 0.031542
311 2 37.9552 43.4697 20.013 0.100586 -1.10231 -4.11181 0.40673 -0.139028 -0.122155
312 1 37.8435 6.42778 53.1489 -0.80618 -0.64692 -2.03175 -0.310781 -0.166414 0.207292
313 1 21.6587 5.12226 49.3833 2.51317 -4.20389 1.52204 -0.275522 -0.142628 0.163508
314 2 54.0923 23.7956 19.4309 -0.855895 2.72705 1.58908 0.502909 -0.160253 0.323946
315 2 19.6936 17.4916 49.0818 1.98191 -2.95495 -2.43483 -0.509439 -0.513748 -0.296441
316 1 -2.29069 55.3997 10.042 -1.28026 -0.523153 0.324837 -0.325113 0.0181639 0.261538
317 1 9.75243 21.2868 45.7535 -0.432753 -3.54905 3.31703 -0.381002 -0.419769 -0.125622
318 1 -3.49246 -2.21573 41.8733 -0.0145828 1.07973 -1.28917 0.330986 -0.0699151 0.0801695
319 1 13.212 52.6297 30.6273 4.21077 -5.01413 -4.30079 0.220047 0.0384191 -0.640616
320 1 16.2286 45.4471 29.1226 1.30059 0.993092 -0.360533 -0.11137 -0.411915 0.0675497
321 1 16.047 15.3056 20.2682 4.06427 -0.231634 1.6004 -0.176762 0.375429 -0.999187
322 1 6.23755 47.1056 18.1426 -1.85345 -1.00267 -1.76636 0.110946 0.149325 -0.0175325
323 1 1.52446 41.2682 42.4564 0.606147 -0.515301 0.459172 0.400864 -0.406375 0.223755
324 2 12.4146 28.8379 16.3203 -1.80136 -0.44055 1.84128 -0.361477 0.644478 -0.0792686
325 2 26.0816 46.433 7.80274 0.982347 0.162973 -0.692878 0.0194796 -0.128684 0.418719
326 1 43.6712 33.9466 15.988 3.01808 -1.15665 -0.324888 0.112453 0.459588 -0.615673
327 2 46.3351 38.4382 11.4186 2.0424 -0.378992 3.57496 0.694658 -0.399945 -0.531106
328 1 16.8162 12.4709 23.7247 -2.00863 0.518638 0.705302 -0.373097 0.121884 -0.00635319
329 1 31.8724 4.72362 20.1778 3.22011 -1.01473 -2.12799 0.399397 0.448705 0.0846876
330 2 20.1132 24.7275 15.0832 -1.32309 -3.31037 -0.969711 -0.0279457 0.0339273 -0.398998
331 1 32.4321 -2.36782 2.06921 -1.9701 -1.51859 -0.464671 -0.0384917 0.0909533 0.356282
332 2 36.231 54.7428 24.7073 -3.64032 0.833488 1.4724 0.0926114 -0.275592 0.109275
333 1 27.5334 52.7592 5.41356 4.13049 -1.60152 -1.56421 0.22953 0.0601888 0.223851
334 1 38.9612 51.5703 44.5292 -0.0245309 -2.32521 -2.10971 -0.0802331 -0.0509931 0.305947
335 1 49.3932 52.6304 -1.5864 3.18555 -0.0652949 2.41809 -0.65935 -0.015654 -0.0799022
336 1 45.2969 19.5274 13.0423 0.573374 -0.25821 2.03406 -0.437412 -0.188627 -0.00821524
337 1 -3.04337 -2.36792 55.9444 -1.83703 3.66916 -1.7186 0.320052 -0.6983 0.446009
338 1 18.483 48.5692 47.5728 -0.811734 0.55377 -2.62517 -0.0319185 -0.182096 0.0969601
339 1 19.6178 18.5063 8.52167 4.12996 -0.220383 -3.46719 -0.191043 -0.21635 -0.0980076
340 2 0.328597 37.8109 16.7912 2.42042 0.916504 1.5565 0.537578 -0.351984 0.119647
341 1 49.5849 48.2378 55.3847 -1.82633 1.36057 0.502849 0.492272 -0.174243 -0.666422
342 1 14.1509 48.9226 40.5627 -5.9012 0.347972 0.0930481 0.0714413 0.528531 0.178334
343 1 23.0107 28.6128 49.4523 0.117598 0.307011 -1.19084 -0.528448 -0.00536446 0.191606
344 2 31.2922 8.15661 31.005 2.51688 -0.804809 -0.453657 -0.5264 -0.496992 -0.0338427
345 1 20.1328 9.3626 16.6068 -0.917247 -1.51695 -1.94636 -0.07314 0.100214 0.127996
346 2 40.4266 36.1213 4.62144 -1.37404 1.49861 1.53638 6.97096e-05 -0.309833 -0.110942