ITEM: TIMESTEP
22000001
ITEM: NUMBER OF ATOMS
13500
ITEM: BOX BOUNDS pp pp pp
-3.70283 56.2028
-3.70283 56.2028
-3.70283 56.2028
ITEM: ATOMS id type x y z vx vy vz fx fy fz
1 1 26.0356 54.9192 24.4462 3.24887 -1.79073 -3.91325 -0.108537 -0.696657 -0.395314
2 2 42.5005 36.7817 37.0674 0.533555 -0.900919 -2.16431 0.252754 -0.177497 -0.259725
3 2 44.377 24.9101 17.9094 0.0333043 0.953372 -2.72166 0.0351368 0.723649 -0.0526061
4 1 53.919 13.2656 54.7009 -0.576157 0.137255 0.138452 0.202715 0.476133 -0.213735
5 1 30.7807 28.6085 25.9014 -0.655055 -0.899521 -0.311037 -0.266168 -0.599365 0.190539
6 2 38.4943 42.2432 52.6784 1.70662 -0.829526 0.547456 -0.14641 0.0157715 0.266006
7 1 43.8655 29.5072 16.3027 2.16228 -1.26267 1.6247 0.176608 0.870397 -0.0162888
8 1 1.87184 -0.605849 42.7481 4.85365 -2.68909 0.929035 0.311706 0.165886 -0.369158
9 1 51.4295 28.6515 17.3144 -1.81816 -1.0147 0.332542 0.109941 -0.512467 0.22543
10 1 33.3923 53.134 14.6012 -1.3748 0.813948 -1.42698 -0.0586264 -0.0683306 -0.39625
11 2 33.038 43.5297 55.2232 -1.56421 1.85444 -1.10744 -0.485473 -0.100978 -0.0336749
12 1 1.63975 47.9597 -1.80946 -0.417187 -0.181752 1.40243 -0.184048 -0.108399 0.0739004
13 1 30.1762 6.18248 3.01825 -1.48196 -0.854261 -1.84545 -0.152992 -0.06 0.0164996
14 1 13.287 32.4055 36.3954 -1.77999 1.49852 2.40668 0.0702884 0.344234 0.179751
15 1 35.8912 3.18973 48.1446 0.105356 -0.805019 -1.04913 0.507583 9.64078e-04 -0.268445
16 2 45.4625 21.4311 21.7384 2.07895 -4.43589 1.5923 0.254275 -0.190326 -0.100314
17 1 7.6558 1.87367 43.4865 -0.267479 -1.59961 -2.47357 0.267248 -0.680116 -0.486472
18 1 52.7813 29.907 42.7239 2.11754 0.109233 1.92775 0.3718 -0.467669 0.0775488
19 1 42.8852 15.7102 45.0624 -2.48519 -0.485471 1.85879 -0.0719248 0.679252 -0.542632
20 1 20.0814 9.86418 4.08513 0.171985 -2.17226 0.611055 0.293546 -0.300744 -0.133816
21 2 49.1988 18.4707 41.4646 -0.69665 1.85117 -1.54719 -0.0635069 0.460025 -0.12968
22 1 54.7398 7.33306 2.00585 1.16328 -1.81384 2.42507 0.00750674 0.420321 -0.201072
23 2 24.1563 1.59358 3.11112 -0.0281666 0.944104 -0.571698 -0.111106 0.470804 0.121804
24 2 32.1404 52.0639 54.7779 1.58617 -1.11651 1.02789 0.471454 0.262598 -0.0552159
25 2 46.8442 14.532 31.5439 -1.7151 -0.826143 -0.767984 0.658366 -0.110319 0.622167
26 1 -0.434648 27.1939 -1.13329 -0.944387 -1.31651 0.744314 0.0492903 -0.101324 0.190947
27 1 43.7331 0.943568 40.2617 -3.58241 -5.13095e-04 0.631692 -0.161395 -0.799483 -0.652102
28 1 28.6911 -2.01975 32.5602 -0.977297 0.661739 1.28371 -0.606345 0.278971 0.179731
29 1 0.365999 33.2908 13.1708 -1.20544 -0.284783 -2.3237 -0.323334 0.23658 0.905033
30 1 16.8078 55.7862 0.800506 -2.66834 1.65633 1.8828 0.134628 -0.177212 -0.181321
31 2 0.00799473 54.3458 18.2491 1.19699 -0.183393 0.709421 0.203177 -0.258245 -0.170156
32 1 45.7251 48.3777 26.8726 0.662688 0.521903 -2.96673 0.0749696 0.154411 -0.558866
33 1 9.40601 20.6412 29.0675 0.76376 1.39689 -0.10225 -0.0338996 0.335939 0.0475107
34 1 44.816 21.1914 29.7994 2.25382 -2.60038 0.0948658 0.0341408 -0.308814 0.264476
35 2 34.8268 -2.80033 20.4808 1.65694 1.47007 0.201954 0.176611 0.579371 0.256815
36 1 39.1834 36.5155 7.16036 -3.22889 0.38749 -0.350017 -0.148546 -0.406538 -0.0671548
37 1 -1.17413 3.05959 31.5565 -1.34895 1.54858 1.99212 0.0381989 -0.441427 -0.80647
38 2 49.824 4.44336 49.1756 -0.257758 0.841733 2.44861 0.225089 -0.220551 -0.408092
39 2 24.9267 34.7397 51.2207 -1.31946 -3.7505 -1.97199 0.178459 0.235903 -0.37931
40 2 51.0532 38.1951 40.3906 1.13144 -2.05613 -0.629447 0.50133 0.872394 0.0463874
41 1 8.65975 23.5027 19.9432 -0.0288166 -2.08033 3.13544 -0.270343 0.0854039 -0.0316687
42 1 -2.80754 54.9204 38.4298 0.523777 2.65689 -1.28253 -0.0498779 -0.378328 0.172022
43 1 33.5143 3.69797 48.3229 -0.273632 -1.49476 1.08911 -1.185 -1.24348 0.546012
44 1 46.6048 19.3672 15.1611 -1.96881 0.865992 0.469744 -0.40559 0.355966 0.226084
45 1 23.1492 33.8508 53.3643 -1.18016 1.18453 0.635414 0.516602 -0.286171 0.083542
46 1 37.6368 40.101 -1.00882 3.37512 1.49905 -3.47333 -0.34717 -0.485067 -0.00113841
47 1 46.1087 10.892 14.838 3.38076 -0.830606 -2.29709 -0.00331698 0.302858 0.330674
48 2 12.2957 16.483 19.3995 0.880216 0.572237 -0.775081 0.0940501 0.567255 -0.3569
49 1 7.88298 30.4083 1.0151 1.93976 -0.529174 -1.96783 -0.00782191 0.84382 0.207211
50 1 34.5193 4.54117 14.4145 -6.32048 3.43456 2.57132 0.41071 -0.11116 -0.353271
51 1 12.3224 32.441 53.0458 -0.538172 1.94724 -1.66577 -0.255935 -0.277416 -0.0345539
52 2 30.4138 29.4349 34.8222 0.996452 0.0998464 4.0756 -0.0564053 0.734787 -0.18397
53 1 35.9963 37.1123 11.2827 0.632061 -1.83056 1.76148 0.0768082 0.688946 -0.309565
54 1 34.7108 1.45899 3.93972 -0.836588 0.825857 -1.40777 0.409945 0.462951 0.140259
55 1 33.9469 -1.64917 16.8664 -0.514493 1.03998 2.52258 0.843532 -0.445044 -0.118988
56 1 26.8375 26.1992 40.0466 -2.90569 -0.200601 -2.19488 -0.0085337 -0.0814981 0.623513
57 1 -2.74706 50.834 41.4671 0.219758 -0.408205 1.53892 -1.12337 -0.0654088 -0.0440709
58 2 45.3295 22.2073 -1.54786 -1.17767 1.52343 0.989384 -0.762332 0.0169073 0.00208166
59 1 21.2263 -2.34107 36.3209 0.2543 1.41327 -1.79712 0.654263 -0.395583 -0.0841247
60 1 12.7365 6.73303 55.1722 2.13688 3.06374 0.426397 0.726326 -0.03669 -0.123364
61 1 35.8385 31.0632 33.3011 -1.19658 -0.780146 0.862912 -0.0499002 0.129545 -0.139212
62 2 17.7414 48.1027 37.8155 -1.88716 0.0704337 -1.63908 -0.00431791 0.236089 -0.354681
63 1 41.796 9.70985 24.2928 -0.564222 -2.13045 0.0839085 -0.845976 1.25718 0.126782
64 1 8.81553 5.57582 10.5112 1.52737 -1.76166 2.24977 0.0286672 0.637817 -0.195325
65 1 8.23049 29.5643 51.4276 2.07066 4.1825 -2.15905 -0.303963 0.436266 -0.0166338
66 1 18.4673 53.5545 46.2921 -2.16694 -2.49885 0.390439 0.0663667 0.484532 -0.0338262
67 1 21.1115 12.5341 54.3705 0.370543 -1.15375 1.2785 -0.0302147 0.894769 -0.693439
68 1 1.97154 22.0212 8.00252 -0.169494 2.12661 1.57569 -0.0203343 0.471028 -0.437374
69 1 21.6896 48.3208 53.679 2.0153 0.474311 0.521719 -0.288827 -0.53413 0.0415911
70 1 27.7505 49.3964 23.1506 -1.19715 1.59723 2.52339 0.187664 0.176417 -0.594804
71 2 41.5185 26.3499 4.3634 -1.20543 1.42661 -3.92752 -0.555069 0.151952 -0.0886044
72 2 47.7997 28.9201 50.4779 0.625915 0.866905 -0.0899164 -0.487164 0.620585 0.200966
73 1 8.39311 11.3205 27.8139 2.251 2.54436 -1.85662 -0.0689853 -0.640438 0.00135743
74 1 36.351 8.29729 -3.20704 -0.292952 -0.660175 1.66264 0.177497 -0.246222 -0.551887
75 1 36.4329 22.8699 -3.08184 -2.40432 -0.405191 -0.451465 0.205052 -0.25752 -0.0788935
76 1 18.6322 5.56202 38.5627 -1.43737 0.494567 0.147123 -0.286375 -0.418696 0.439882
77 2 14.967 19.022 -2.48015 -2.31698 0.329476 -0.670871 -0.137175 0.111849 0.0733703
78 1 38.7263 -0.638205 49.2758 -1.26463 2.78498 0.722753 0.867168 -0.0177683 -0.441027
79 1 0.932499 39.1151 6.74142 1.41631 0.691218 -2.34555 0.0273044 0.0465153 0.117325
80 1 39.5848 39.8279 -2.91154 1.51706 1.19275 2.1592 -0.0801005 0.632054 0.188837
81 1 28.0749 36.2306 -0.223706 1.4388 -0.678465 -1.30495 -0.422931 0.543643 -0.233381
82 1 48.6822 -0.299021 38.7292 0.990484 1.4887 -0.351469 0.425606 0.0346191 -0.185788
83 2 52.5461 47.0008 13.8988 0.0749818 -3.71356 1.83095 0.810627 -0.084934 -0.18632
84 1 45.3883 7.60599 39.5856 0.711558 -0.733253 2.02079 0.35362 0.146722 -0.242346
85 1 41.0337 50.4289 -0.887983 0.928632 -0.581222 -2.76801 -0.222784 0.00484446 0.432873
86 1 39.3838 15.5297 7.14736 -1.41371 -0.869273 -0.127214 -0.328024 0.604208 -0.223448
87 1 21.7572 3.19683 44.5576 -0.352606 -0.146093 -0.946357 -0.387662 -0.110395 -0.109155
88 1 -2.66769 13.4095 6.06915 2.95409 0.227887 0.192276 -0.458311 -0.558363 -0.0207933
89 1 13.3229 49.9311 33.7234 -0.0742209 -0.248568 1.6031 -0.585309 -0.909403 -0.114947
90 1 45.5003 48.2623 32.3288 -0.701524 -2.17883 -2.15051 0.216678 0.412986 -0.406153
91 1 21.0082 29.8964 4.29191 4.74985 -1.57132 -0.659991 0.0296536 0.24187 0.770224
92 1 55.7555 -0.382483 40.1428 4.37577 -0.977417 0.419271 -0.141971 -0.0182819 -0.250951
93 2 19.805 47.4768 33.0952 0.813559 -1.11292 -0.479028 0.0938181 -0.138159 0.221316
94 2 4.87591 47.5773 30.2315 0.971327 1.05095 -0.872563 -0.098073 -0.460611 -0.0858429
95 1 52.016 51.4744 29.0377 0.623956 0.712375 1.42215 -0.503809 0.029992 -0.468504
96 1 43.2301 -3.34121 37.9753 2.18643 1.22249 0.321644 0.173504 0.516191 0.477334
97 1 56.0978 28.0996 20.8218 2.54427 -0.0485779 0.294864 -0.167715 -0.343017 -0.508665
98 1 11.3286 21.0055 15.9585 -2.54653 -2.57866 -0.847318 -0.440092 -0.679323 0.211313
99 1 8.64502 33.8904 26.8749 -1.01712 -1.73928 -1.28234 0.488885 0.249731 0.0709672
100 2 54.807 54.6858 11.8775 -0.70292 2.17519 -1.73796 0.203553 0.485507 0.455606
101 2 6.27397 11.0285 15.4618 0.101901 1.25141 -0.426455 -0.0489782 0.409471 0.404946
102 1 43.1334 34.7672 54.0826 -1.70901 1.10224 -0.678804 -0.289127 0.00155377 -0.660069
103 1 7.35762 52.1186 5.14816 0.883443 -0.782411 0.17866 0.685136 0.396058 0.37054
104 1 30.509 40.5332 37.1116 1.15743 -0.326368 -2.57723 0.110403 -0.155893 -0.264515
105 1 9.45734 41.0513 45.5796 -2.38218 -0.648451 1.61352 0.119486 -0.701972 -0.0766571
106 1 7.6234 26.2166 4.73385 -0.631132 0.940836 -0.567627 0.212486 0.181545 -0.686625
107 1 26.1265 7.48642 25.0172 -1.14202 0.587187 -3.40169 -0.0143929 0.488381 -0.205374
108 2 0.648205 33.5491 40.0665 1.8301 0.539827 -4.0991 0.607113 -0.124916 -0.491834
109 2 53.452 -1.0647 28.7524 0.926331 -0.655033 -0.979677 -0.0874228 0.43351 0.286639
110 2 32.7944 21.7595 7.35271 -1.29731 -1.47911 -1.27937 -0.0297596 -0.968316 0.063879
111 1 42.459 44.1034 24.6414 -3.51548 -2.03116 2.45359 0.545588 0.139259 0.451271
112 1 17.4729 10.3711 40.5561 2.88834 2.347 1.86367 0.356948 -0.181752 0.0717191
113 1 4.58356 56.1811 44.2109 2.25959 0.124398 -0.996565 -0.366209 0.506039 -0.0381046
114 1 0.933268 51.8041 34.7337 1.60923 1.95008 -0.568178 0.932191 -0.745275 -0.517683
115 2 53.6279 9.2554 43.8401 -1.65321 0.111025 -1.98325 0.0610411 0.759649 0.138138
116 1 11.8197 36.1369 34.1725 2.46628 -1.83622 0.888851 -0.425881 -0.354415 -0.578652
117 1 33.4054 29.5031 0.452154 -1.86134 3.28246 2.41871 0.398721 -0.159893 -0.0432488
118 1 35.953 -2.71207 43.4044 -0.998071 1.9247 -1.28832 0.0627715 0.448505 -0.244187
119 1 -0.264088 49.1087 38.2642 3.00693 -1.30261 -0.0901609 0.38503 0.196008 0.863302
120 1 49.8128 1.58785 -2.49945 -2.84933 0.248777 -0.5117 -0.283226 -0.123602 -0.589129
121 1 47.5264 13.4879 34.1919 -2.63198 -0.826139 1.29517 0.383134 0.303249 0.547062
122 1 18.8311 22.5801 32.3866 0.160576 -3.38002 0.779512 0.487425 -0.222679 0.0794514
123 1 25.8909 25.7933 22.8944 -1.43375 -0.315193 -1.14483 0.27746 -0.294306 0.00839221
124 1 10.333 54.1379 25.9666 4.1127 2.66416 -2.8013 -0.191332 -0.484094 -0.115495
125 2 7.60023 27.7702 46.6662 0.256181 0.780255 -1.59292 -0.241772 -0.297172 0.173375
126 2 32.2181 22.6716 34.5002 1.77733 1.45521 0.603389 0.166874 -0.469255 -0.201847
127 1 22.9362 21.7105 34.968 -1.92653 -2.12593 -2.39716 -0.753039 0.0900243 0.374861
128 2 54.3332 40.081 7.14742 2.00156 0.25508 -1.655 -1.38984 -0.0839682 0.0558401
129 1 32.0612 55.4699 43.9864 -1.20713 -0.316996 2.27596 0.299551 -0.475602 -0.233734
130 2 11.1773 55.4251 40.9274 0.26126 -1.25951 -0.779841 -0.194041 -0.221892 -0.371264
131 1 11.659 23.8578 -2.05751 -2.87252 2.55287 -1.28913 0.0653074 0.532794 0.185913
132 1 22.3611 36.9608 55.2737 -2.60757 0.225845 -0.327665 -0.415606 -0.172572 0.708472
133 2 3.81227 24.8449 42.2061 0.56369 2.57829 -1.74691 -0.0716955 0.0319828 0.189873
134 1 18.6341 39.0269 24.5084 -1.39968 2.30384 -1.22792 0.1896 -0.10975 0.390683
135 2 18.6685 3.6031 54.1433 1.28122 -2.81241 0.0990918 -0.591396 0.496838 -0.239328
136 1 53.3659 49.815 27.8542 1.17865 3.67361 0.629448 -0.108862 0.587749 -0.600252
137 2 34.4693 50.0799 20.5018 -0.670553 0.743035 1.09555 -0.371245 -0.350501 -0.0956954
138 1 24.1262 22.8663 39.8896 -2.92546 -0.295269 0.333011 0.785163 -0.103389 -0.265471
139 1 -0.87831 32.9072 33.8423 2.44598 0.00792308 2.01452 0.0601046 -0.313473 0.123733
140 1 53.5696 42.2729 37.9578 1.50658 0.385241 -1.67687 -0.802584 -0.169582 -0.00480884
141 1 20.8928 -0.669503 27.0379 0.724942 -0.773253 -1.4644 0.404568 0.384963 -0.276763
142 1 14.7821 5.23221 41.1406 -0.049461 1.12294 2.4306 0.535052 0.0247469 0.117594
143 1 15.1557 22.4852 29.6397 0.370763 3.37776 0.528525 0.187645 0.479422 -0.361536
144 1 26.7212 51.3831 38.0505 -2.03882 -1.51459 1.56306 -0.390132 0.186894 -0.468954
145 2 26.1205 -0.0334105 5.01285 -0.386258 -2.18337 -0.103616 0.581593 0.298776 0.256074
146 2 55.4286 36.0639 26.2179 -0.892572 1.03647 -1.55025 -0.0743554 -0.236077 0.0171343
147 2 44.65 53.1652 31.9597 -0.0790232 -1.20348 -0.751242 0.575713 0.0566858 -0.225869
148 1 16.5863 14.7135 54.1904 0.0781261 1.64117 -5.00045 -0.0281158 -0.180278 0.123902
149 1 -1.08103 32.0232 6.91744 -1.04472 0.975562 -1.08782 -0.250286 -0.677117 -0.103424
150 2 24.5892 29.7687 12.1954 3.41485 0.957732 3.59132 0.37649 -0.161283 0.468621
151 1 11.8552 5.46842 19.5365 -0.912369 4.6633 -0.983804 -0.52771 -0.569581 0.00819549
152 2 42.7405 34.9785 13.5237 -0.276229 2.08073 2.80919 0.764198 0.0578295 0.163457
153 1 14.1296 36.5866 37.8334 0.230036 -1.38359 -0.153775 -0.393572 -0.0644171 -0.0342377
154 2 20.7734 10.6342 18.9483 0.229711 -0.238202 -1.93053 -0.281146 -0.208951 0.0791415
155 1 54.8243 0.89804 12.8998 -1.89724 2.16779 -0.0710484 -0.030906 0.0132985 -0.0162716
156 1 55.7478 31.9041 3.49155 1.3388 -0.184636 -1.50178 0.56585 -0.156206 0.0512102
157 1 42.8936 53.5236 29.6371 -3.6746 -0.879564 -2.62904 0.343813 0.279391 0.19926
158 1 18.0839 32.3817 26.0085 -0.553428 -0.847116 -1.77901 -0.746703 -0.627341 0.655922
159 1 40.1287 22.8209 47.3983 -4.11868 -0.0573315 -1.59542 -0.150145 0.0289662 -0.470727
160 1 45.0419 29.6024 45.7714 -3.69831 -3.42766 0.358442 -0.0499561 -0.253473 -0.220503
161 1 37.3966 39.9055 23.7783 3.19054 2.45529 0.413404 0.993894 0.311044 -1.23548
162 1 48.1699 51.9268 42.2362 0.353689 -0.21809 1.22319 0.406672 -0.379238 -0.183223
163 1 38.9915 9.42593 -3.22021 -0.517952 -0.370025 -1.64206 -0.358855 -0.275284 0.0909761
164 1 37.792 27.9819 25.2534 0.832363 3.24174 0.00461894 0.161755 0.210805 0.169059
165 1 6.66377 11.042 10.7112 0.925391 -0.85015 0.289294 0.194111 0.00613823 -0.345178
166 1 16.5561 42.2731 21.4984 2.78014 0.294908 -0.773125 -0.417384 -0.115962 0.0661204
167 1 55.3485 49.7396 37.1969 2.97921 -0.355512 -0.715909 0.57501 -0.0345311 0.0361119
168 1 18.3961 44.5382 8.53982 2.49996 1.82911 2.76183 0.620241 -0.796582 0.28308
169 1 42.0134 41.4149 38.3231 1.38068 1.79862 -0.45028 0.189327 -0.200993 0.401885
170 1 12.6592 26.2338 46.1883 -3.32281 0.179996 0.0384067 -0.426483 -0.19461 -0.51771
171 2 30.0319 25.5337 32.2647 -2.10856 -0.347383 1.06813 -0.119435 0.0566265 -0.0219641
172 1 -3.59349 5.19484 34.3462 0.495376 0.233817 1.13543 -0.201903 0.179882 -0.555454
173 1 52.9156 -1.33876 -2.39739 -1.09657 -4.04863 -2.25826 0.0789767 -0.0494275 0.467439
174 2 22.2146 2.29263 0.588155 -2.13474 0.861142 1.42538 0.811001 -0.266332 0.153638
175 2 13.5341 30.4885 38.2125 0.715184 -2.27545 -0.123463 0.724299 0.115178 -0.0818205
176 1 24.3374 25.7958 2.54785 0.434888 -0.700326 -2.87705 0.942182 -0.158676 1.21124
177 1 47.5509 13.2005 -0.626245 1.72737 -0.525478 -1.46284 -0.494579 -0.0657468 -0.318393
178 2 8.7031 41.6545 39.6461 -1.16596 -1.24782 -1.44422 -0.132496 -0.015054 0.204208
179 1 8.75949 33.6551 35.9289 2.15143 -2.89187 2.54825 0.0579189 -0.350156 -0.166077
180 1 10.6057 5.29836 45.2302 -1.73657 -0.477821 -0.954567 -0.954536 0.624814 -0.585136
181 2 38.885 -3.37143 1.47463 -3.39908 0.0175065 -0.915613 -0.0294968 0.111415 0.195468
182 1 12.0705 28.9618 29.7732 -1.22166 -4.67585 -0.955338 -0.680841 -0.0469913 -0.426971
183 2 0.866073 49.5845 53.709 -0.619531 2.88837 -0.518932 -0.371559 0.0648096 -0.476474
184 2 35.7087 5.47394 17.1102 0.428465 3.16093 0.646704 0.400795 0.322408 -0.309546
185 1 43.0676 -0.462282 -3.45346 -3.14865 0.443186 0.466155 0.359242 0.25627 -0.471917
186 1 53.6423 46.5527 20.4584 1.50294 -2.53785 -0.804302 0.18515 0.16603 0.229718
187 1 33.9543 49.8589 50.6675 -0.898807 0.623286 1.43524 -0.0598806 0.587825 -0.535874
188 2 5.47351 31.9099 2.00143 -0.847615 1.30247 -0.732197 -0.530325 -0.672441 -0.429282
189 1 14.3076 47.691 50.6291 3.05535 0.772016 1.54476 -0.664428 0.228317 1.05211
190 2 -2.97018 0.448071 49.5875 0.955221 2.32829 0.387434 -0.170525 -0.05177 0.734519
191 1 26.4382 9.77844 46.1482 -1.04148 -0.0434167 0.691329 0.453473 0.457826 -0.233432
192 2 24.4289 49.3672 38.904 -1.31597 0.805125 -0.340402 0.295427 -0.00445428 -0.185088
193 1 30.8793 46.7767 1.7649 1.47948 -0.726572 0.559991 0.292532 0.50541 -0.212362
194 2 43.3173 44.6182 47.7821 0.887019 0.443215 2.12468 -0.215324 -0.100977 0.784065
195 2 18.7405 42.2391 32.2765 -1.93378 -0.288538 -0.572913 -0.0186666 -0.199724 -0.629842
196 1 26.8603 0.464578 7.49244 1.1986 -1.22488 -1.21201 -0.066308 0.00314103 -0.0286213
197 1 1.92075 24.6435 30.6987 -0.427365 -2.58872 2.20443 0.231146 0.138524 -0.364957
198 1 34.0887 15.2101 41.9131 -3.09057 -1.90943 2.35079 0.0379819 0.105717 -0.169492
199 1 23.6493 -1.45668 12.7988 1.10583 -0.48447 1.02101 0.598521 0.0262116 -0.104461
200 1 38.6893 16.8542 -0.263029 0.144237 -3.41274 -2.03063 -0.0832397 0.767204 0.851545
201 1 55.1597 5.12882 10.5725 0.265088 -1.36331 -0.779115 0.166699 0.0097508 -0.284191
202 1 46.8366 -0.870393 37.05 -0.695392 1.47816 -1.31619 -0.0635678 0.169203 -0.179598
203 1 21.4888 0.187509 36.9087 1.70098 -4.39182 -1.33449 -0.500417 -0.0982911 -0.320791
204 1 17.6414 38.344 40.2125 -4.41454 -1.77025 2.20442 0.179764 0.270816 -0.0506282
205 2 13.7987 2.10995 54.0867 1.1443 0.256507 -0.964667 -0.280907 -0.0217226 -0.00949824
206 1 48.4421 25.7484 27.2879 -4.33016 -0.0208205 -2.89677 0.53979 -0.0170593 -0.497484
207 2 0.501575 52.7288 6.84187 -0.982737 -0.099496 -0.172917 -0.534712 0.353333 -0.410414
208 1 27.6677 1.2781 -3.35417 -0.329137 -0.713223 -2.40749 -0.418318 -0.036499 -0.40396
209 2 28.4182 9.61954 -2.83385 1.37603 0.134755 -1.74208 0.302642 0.378315 -0.373979
210 2 1.1338 28.801 32.0281 -0.940339 -1.51643 -2.41673 -0.0440439 -0.58 0.254315
211 1 36.1535 17.216 28.2515 2.97211 -2.62843 -2.86304 -0.30952 0.101735 -0.0524448
212 1 3.31132 23.0356 37.5364 -0.325144 -1.62854 -0.238322 -0.366842 0.0791455 0.319523
213 1 4.91703 16.694 0.569937 5.54269 -1.10175 3.16296 0.747525 0.166707 0.974577
214 1 51.6347 12.5041 19.2362 -0.629702 -1.79245 1.63465 -0.341321 -0.26231 -0.201176
215 2 4.57695 19.3209 19.6704 -2.17517 -2.77425 1.23452 -0.00964693 -0.0768883 -0.00705485
216 2 48.7308 39.725 33.3952 1.56715 1.98419 1.12064 -0.897527 -0.577912 -0.430897
217 1 36.991 13.8279 33.1908 0.391411 2.28015 0.799526 0.758621 -0.134671 0.70642
218 2 36.39 11.8959 44.43 -4.07471 0.743349 0.144463 0.344451 0.0940579 0.497165
219 2 32.5261 50.1735 25.1334 -0.0517953 -1.96382 -2.13235 -0.212366 0.63907 -0.381514
220 1 41.3929 5.26194 41.2502 2.24435 0.540359 -3.56478 0.0465148 -0.642533 -0.164991
221 2 51.5611 29.3075 53.993 2.27931 0.00345525 1.40884 -0.559411 0.291266 -0.159996
222 1 43.901 13.5832 44.4069 -3.21176 -0.314854 -0.678367 -0.64684 -0.433749 0.293041
223 2 18.7734 8.05075 52.5646 2.63936 0.273199 0.886215 -0.0427251 0.297926 -0.601122
224 1 2.24469 17.6205 18.8471 0.572524 -0.411686 1.72206 0.277467 0.133981 0.202066
225 1 28.6877 50.5995 27.7337 -4.73304 0.637291 0.826169 0.408468 0.406969 0.189644
226 1 26.1612 48.9852 37.1012 -3.61186 0.146145 -1.61128 0.388949 0.0552115 -0.309023
227 1 50.0292 30.2309 28.9645 -2.72398 -5.62481 1.3228 0.726081 -0.0369991 -0.266931
228 1 6.20529 2.41366 28.2877 2.49435 1.13679 0.241677 0.0323474 0.269024 0.0472715
229 1 1.07961 50.8314 20.6181 1.61827 2.05357 -0.0345109 0.166093 -0.0932746 1.29046
230 1 4.1122 6.40547 -2.62126 2.60491 0.695735 2.00364 0.738194 0.51932 -0.202334
231 1 45.9813 10.7666 28.1766 1.66579 -3.87143 0.265203 0.607969 -0.116649 -0.229669
232 2 10.2249 2.52969 45.096 0.484366 -2.50205 -0.871954 -0.558208 -0.190282 -0.568485
233 2 16.4005 39.8793 45.8045 -0.0760465 -2.5986 0.869349 -0.482547 -0.313632 -0.510854
234 1 38.358 31.4906 8.73891 0.949076 0.0580381 -1.76723 0.818865 -0.0999346 0.31603
235 1 24.499 45.8333 23.5734 0.857214 2.59841 -0.536953 0.348263 -0.2023 0.091855
236 1 14.8612 48.1307 8.41925 -0.632708 -0.908922 -2.23302 0.272398 -0.670767 -0.781576
237 1 52.2309 -0.133052 46.9921 0.305942 -2.0761 1.66193 -0.23249 0.160525 0.0686147
238 1 -2.76634 12.796 8.53398 0.0827686 -0.520186 1.5663 -0.301002 -0.680015 0.165127
239 2 7.6423 49.4455 26.3273 -1.6728 0.874254 -1.80518 0.165088 -0.431039 0.0278176
240 1 18.1504 40.1803 36.3402 0.947074 -2.00572 -2.06926 -0.0894304 0.374202 0.0635862
241 2 35.4888 -2.09038 25.2838 -1.13072 1.64504 -0.502762 0.24941 0.073472 -0.395387
242 2 34.8845 10.4787 42.1432 1.52241 1.69837 -0.0169423 0.0317556 0.35429 -0.429734
243 1 38.1535 26.3581 27.3678 0.458469 -0.960542 -0.998063 0.348726 0.424486 -0.092381
244 2 27.319 -2.8947 23.7418 1.7742 0.0459013 -0.123685 0.400024 0.0266428 0.743358
245 1 55.4906 55.4159 42.0779 -0.933905 0.0317419 -1.17682 -0.305129 -0.300846 -0.305516
246 2 24.5992 -2.94172 41.624 -4.08646 -0.484381 -0.289095 0.575262 0.473474 -0.462119
247 1 46.8685 44.7634 24.4852 -1.20349 -0.573429 1.23673 -0.15266 -0.158562 -0.284979
248 2 40.7048 -2.64621 24.546 3.32529 -2.68114 -2.08149 0.073751 0.290541 -0.628754
249 1 42.2804 31.4113 3.30031 1.58785 -0.449051 -1.96446 -0.462231 -0.545329 -0.270669
250 2 25.4675 39.7316 50.0985 -1.28176 -1.30309 -0.0821369 0.319313 0.246263 -0.100516
251 1 4.16925 0.973765 -1.71204 -0.814774 3.83971 2.31352 -0.354195 0.411783 -0.181752
252 2 23.2862 41.1206 4.27878 1.18776 2.9323 2.20005 -0.435092 0.0147933 -0.231163
253 1 45.2611 37.4586 18.1424 3.09102 2.54072 1.04125 0.0280942 -0.16804 -0.891184
254 1 55.1839 13.8124 34.6707 -0.276185 5.03874 -1.24122 -0.119949 0.525915 -0.0695482
255 1 35.6478 -3.69056 50.5143 -0.599204 0.22956 -0.716026 -0.345746 0.353107 -0.729885
256 1 32.3681 16.3936 6.73451 -0.214393 -2.37772 0.878826 -0.960737 -0.745376 0.140083
257 2 15.542 10.6337 6.78156 2.18287 0.378936 0.349769 0.153487 0.265915 0.379611
258 1 -2.08055 42.4855 14.6558 2.22123 3.29273 -3.67461 0.3835 -0.0129838 -0.100808
259 2 46.1602 50.5058 33.4326 -0.88688 -0.305453 1.3694 0.458202 0.0507219 -0.137143
260 1 -1.18241 10.9172 45.5517 -1.11387 2.70461 -2.0518 0.121975 -0.273586 0.890666
261 1 52.9928 52.7802 39.2849 1.29859 -4.02388 0.678459 -0.104229 0.252219 0.0832415
262 2 22.923 1.4084 47.0447 0.684325 -3.92419 -0.946975 0.384424 -0.230643 -0.029027
263 1 22.6022 20.5178 24.819 -1.06049 1.55627 1.44206 0.313442 0.638894 0.321579
264 2 49.4552 34.7285 38.4439 -1.5797 -2.53264 0.776639 -0.465426 -0.570943 0.383724
265 1 13.769 29.7788 43.494 2.65365 5.21296 0.889762 -0.877416 -0.0923388 -0.287449
266 1 12.6962 3.00827 36.5873 2.07896 -3.50884 2.2561 -0.210163 -0.957077 0.720655
267 1 52.9245 35.6548 54.3253 1.78374 4.61744 -1.11222 -0.464882 -0.495854 -0.467306
268 1 29.7376 32.3472 34.5283 -0.807671 5.93084 1.71947 -0.258677 0.0929351 -0.633035
269 1 46.2373 13.3538 44.9424 1.66421 -0.0303516 0.957392 0.254192 0.223995 0.14479
270 1 46.9414 27.0047 28.7945 2.25514 -3.31905 0.886406 -0.723888 -0.0607846 0.196645
271 1 9.54205 29.2462 45.3606 2.76325 -1.60312 2.11513 -0.0237524 0.221147 -0.567818
272 1 27.1803 38.3729 13.13 0.880389 0.909009 -0.289621 0.104449 -0.0703877 -0.139162
273 1 19.8991 30.0454 52.4332 0.0837494 1.28157 -1.90509 -0.943413 0.567923 0.207019
274 1 14.9748 -0.230753 53.126 -2.29855 -2.45369 1.0343 -0.0879156 -0.0299844 -0.226817
275 1 26.0849 9.99349 53.4387 1.29045 0.665874 -2.02216 -0.664488 0.239864 0.231053
276 1 2.26291 39.3253 37.4211 0.165849 2.96208 -1.02764 0.198864 -0.208429 0.825873
277 1 16.871 51.5522 33.8572 1.62014 -0.544982 1.49692 0.308078 -0.406761 -0.066515
278 1 6.61011 -0.500465 45.3126 0.0152244 2.31399 -3.54932 0.363147 -0.290375 0.0761548
279 1 38.5366 52.4174 14.1548 -1.80052 -3.10495 1.86208 0.264586 -0.772721 -0.293276
280 2 25.7978 9.19345 18.6622 3.12725 1.79683 0.732332 0.138362 0.344228 -0.510702
281 2 41.4024 23.8962 51.7092 0.751998 -0.419781 -0.344932 -0.07999 0.57855 -0.372734
282 2 17.0963 42.8062 38.2388 -1.15444 -0.117512 -0.508534 0.629784 -0.702431 0.474248
283 2 44.7416 -1.44742 10.8432 0.987237 0.415051 1.89323 -0.17093 -0.559172 -0.643911
284 2 18.8232 52.0928 19.8297 -2.19602 -0.264359 -1.72269 -0.13455 0.143645 -0.459482
285 1 48.1717 5.98593 36.2762 0.0157528 1.79239 2.57334 -0.248045 0.384387 -0.180534
286 1 20.0921 56.0818 13.6451 0.950075 1.87371 0.69003 -0.172754 -0.407844 0.604107
287 1 45.2627 47.874 22.2679 -2.49372 -0.950604 -1.3588 -0.51289 0.486391 -0.449295
288 1 13.4838 43.4852 44.7971 1.38216 -2.24738 -0.0499203 -0.300064 -0.833416 0.319445
289 1 2.49459 8.15712 29.4263 -0.00206569 -0.0268717 -1.17353 -0.641439 0.209645 -0.0393952
290 2 -1.04824 45.7785 2.9987 -3.20296 -2.93212 1.31317 0.147939 -0.0690657 -0.282092
291 2 17.1185 36.7105 23.9127 2.24112 -0.647402 0.944454 0.196915 -0.44717 -0.491399
292 2 13.6212 -1.71278 22.7833 -0.704239 -0.39067 2.06709 0.790203 0.679013 0.376099
293 1 3.5762 51.077 3.50246 -1.69353 0.878386 0.751066 -0.106487 -0.889261 -0.38383
294 1 34.4775 44.6513 6.655 0.48418 -0.712632 -0.655916 0.0326459 0.307126 -0.166349
295 1 13.4642 17.8123 12.1814 1.26417 -3.57357 -1.10605 0.14973 -0.132616 -0.0622705
296 2 23.2707 44.8681 8.44321 1.81693 1.52132 0.141714 -0.187437 0.363094 0.321533
297 1 29.8033 18.694 49.68 -0.665717 -1.02649 3.80478 0.482218 -0.735325 -0.312081
298 1 38.3125 13.5987 45.4447 -0.169404 -1.25252 1.68868 -0.324147 0.108035 0.378251
299 2 9.73208 9.72226 22.2667 0.836228 2.12853 0.715909 0.109471 0.0199929 -0.224081
300 2 52.3335 37.8396 6.21275 1.77226 -1.86318 -1.15565 0.0863476 0.0135671 0.531549
301 2 0.903273 4.85635 -1.00104 1.3564 -2.20537 1.03492 -0.27835 0.595902 0.736515
302 2 1.12793 47.5118 49.2647 -0.476452 -0.4217 -1.44829 -0.0601907 0.621598 -0.146585
303 2 39.3916 3.57269 28.6261 1.44314 2.78578 -1.26036 0.0663173 -0.631003 -0.595999
304 2 55.7527 49.1651 34.5034 0.712547 0.050432 0.197096 0.915466 -0.810447 0.119529
305 2 23.5903 -0.10919 -1.13038 -2.02529 -1.25377 0.880079 -0.00936449 -0.749293 0.103031
306 1 25.6697 41.0276 22.1553 0.317629 1.60042 -2.23849 0.674006 -0.363433 -0.191662
307 2 35.1556 6.94798 39.5009 -2.33371 -1.3821 -0.544357 0.288838 -0.337554 -0.387419
308 2 3.65785 53.1263 7.10074 -1.13882 -2.49308 -2.8101 0.0465933 -0.515902 0.30206
309 2 13.2194 32.6902 9.84366 -2.17732 -0.15779 0.622881 -0.0639804 -0.385434 0.17859
310 1 40.1276 5.76423 8.17878 -0.276602 1.02606 0.832373 0.0811065 -0.34361 0.167731
311 2 37.9593 43.4864 20.0748 -0.557333 -0.955168 -3.50372 0.339628 -0.0731499 -0.615981
312 1 37.8516 6.43377 53.186 -0.233289 -0.132431 -2.49364 -0.155683 -0.252241 0.141575
313 1 21.6146 5.18497 49.3627 2.88716 -3.62801 1.13019 -0.00433033 -0.365127 0.153507
314 2 54.1138 23.7504 19.4095 -1.74277 2.87252 1.07912 0.505747 0.0181896 0.276576
315 2 19.6554 17.531 49.1161 2.7422 -1.98668 -1.70163 -0.33876 -0.624477 -0.577753
316 1 -2.27779 55.409 10.0417 -0.397934 -0.539663 -0.366173 -0.395918 -0.00224967 0.300154
317 1 9.75188 21.3342 45.701 0.424316 -2.34969 3.16235 -0.325993 -0.551519 0.266957
318 1 -3.48636 -2.2343 41.894 -0.851614 1.0984 -1.11363 0.339015 0.0610984 -0.234544
319 1 13.1512 52.7095 30.681 3.20433 -4.77241 -2.25242 0.592951 -0.25682 -1.00263
320 1 16.2057 45.4245 29.1303 1.4939 1.82906 -0.62918 -0.0276357 -0.243688 0.141736
321 1 15.9797 15.316 20.2239 4.22163 -1.07506 3.83519 0.0847136 0.303847 -0.757228
322 1 6.2683 47.1245 18.1699 -2.02714 -1.26348 -1.65444 0.0206646 0.0478318 -0.0827333
323 1 1.52256 41.2692 42.4533 -0.479621 0.412528 0.0223354 0.470896 -0.325535 0.125688
324 2 12.4379 28.8537 16.2913 -1.15626 -1.51664 1.63177 -0.39753 0.610331 0.340433
325 2 26.0662 46.4285 7.81854 0.950649 0.512537 -1.31114 0.024998 -0.272971 0.293339
326 1 43.6261 33.9739 15.9809 2.64635 -2.17618 1.16631 0.20373 0.321192 -0.571653
327 2 46.3135 38.439 11.3557 0.677353 0.332262 4.10864 0.879636 -0.422506 -0.0475033
328 1 16.8395 12.4641 23.7132 -0.858779 0.303807 0.734655 -0.554286 0.0587096 -0.00926694
329 1 31.8306 4.74759 20.2128 1.91963 -2.01841 -2.23749 0.662867 0.348138 -0.0102897
330 2 20.1333 24.7794 15.0929 -1.18151 -3.12057 -0.285652 -0.160401 -0.262471 -0.390922
331 1 32.4628 -2.34256 2.08258 -1.85585 -1.72805 -1.25995 -0.0612501 0.0623322 0.281123
332 2 36.2903 54.7259 24.6859 -3.71885 1.42367 1.15713 -0.0334701 -0.395999 0.266343
333 1 27.4739 52.7861 5.44205 3.20363 -1.63843 -2.03833 0.533634 -0.0333423 0.140479
334 1 38.9622 51.6065 44.5669 -0.177595 -2.06332 -2.3868 0.192483 -0.181251 -0.0953975
335 1 49.3313 52.6328 -1.62747 4.50901 -0.21484 2.65161 -0.340832 0.153225 -0.117146
336 1 45.2802 19.5281 13.0113 1.53535 0.122886 1.66783 -0.330757 -0.12587 0.319848
337 1 -3.00872 -2.43918 55.9811 -2.5734 5.03137 -2.75712 0.254637 -0.376258 0.380997
338 1 18.4943 48.5581 47.6166 -0.583738 0.868065 -2.74739 -0.163864 -0.0785233 -0.0169232
339 1 19.5495 18.505 8.57245 4.29037 0.388804 -2.80351 0.0848402 -0.268001 -0.449467
340 2 0.29573 37.7913 16.7686 1.67992 1.58399 1.17176 0.309895 -0.399984 0.356807
341 1 49.6233 48.214 55.3653 -2.82012 1.6609 1.93676 0.29139 -0.0714321 -0.45842
342 1 14.2427 48.9277 40.567 -5.3966 -0.873522 -0.68228 -0.500601 0.437739 0.423036
343 1 22.9994 28.6075 49.4751 1.20128 0.380616 -1.54703 -0.336385 -0.0499053 0.0771351
344 2 31.2467 8.1625 31.012 3.08736 -0.00854295 -0.403968 -0.120307 -0.438124 -0.0203063
345 1 20.1464 9.38823 16.6392 -0.831077 -1.739 -2.07541 6.80683e-04 0.0754295 -0.0410184