ITEM: TIMESTEP
22000010
ITEM: NUMBER OF ATOMS
13500
ITEM: BOX BOUNDS pp pp pp
-3.69896 56.199
-3.69896 56.199
-3.69896 56.199
ITEM: ATOMS id type x y z vx vy vz fx fy fz
1 1 26.0891 54.8697 24.3703 2.61773 -3.10319 -4.36501 -0.307971 -0.261578 0.0348166
2 2 42.5111 36.7613 37.0241 0.795034 -1.22523 -2.42047 0.0023569 -0.188924 -0.0129619
3 2 44.3762 24.9397 17.8621 0.158069 2.29274 -2.61731 0.0894528 0.644975 0.129361
4 1 53.9103 13.2817 54.6947 0.0186219 1.45195 -0.412524 0.213256 0.455594 -0.182649
5 1 30.7626 28.5791 25.9004 -1.23269 -2.22072 0.184338 -0.144166 -0.34633 0.168179
6 2 38.52 42.228 52.6892 1.31279 -0.556993 1.00983 -0.2278 0.2692 0.200002
7 1 43.9061 29.5065 16.3316 2.62108 1.26241 1.40035 0.170462 0.922206 -0.13826
8 1 1.9676 -0.64266 42.7538 5.34616 -1.60912 -0.00460985 0.0535966 0.574066 -0.26441
9 1 51.3972 28.621 17.3264 -1.39868 -2.30198 0.833299 0.164328 -0.405182 0.137131
10 1 33.3665 53.1426 14.5686 -1.33187 0.474268 -2.2817 0.0800247 -0.175281 -0.211538
11 2 33.0045 43.5559 55.1991 -1.86809 1.1621 -1.14582 0.125832 -0.551571 0.0144027
12 1 1.63249 47.9521 -1.77944 -0.655659 -0.296303 1.51803 0.00547115 -9.84339e-04 0.0288267
13 1 30.1471 6.16832 2.98951 -1.61638 -1.00631 -1.64628 0.0488886 -0.0465232 0.116573
14 1 13.2587 32.4387 36.4414 -1.56911 2.21033 2.84976 0.0655719 0.186725 0.138532
15 1 35.9022 3.18125 48.1167 1.11749 -0.305804 -1.72232 0.201987 0.35561 -0.202364
16 2 45.5016 21.3517 21.7637 2.55019 -4.32746 1.05031 0.238978 0.281839 -0.434858
17 1 7.6591 1.83521 43.431 0.30746 -2.79324 -3.28129 0.142584 -0.163584 -0.103324
18 1 52.8228 29.8982 42.7569 2.74717 -0.946377 1.90277 0.0815474 -0.281848 -0.0929757
19 1 42.8382 15.7192 45.079 -2.41565 1.26421 0.257215 0.117195 0.536569 -0.563672
20 1 20.0914 9.82147 4.09628 0.786967 -2.72937 0.348895 0.150545 -0.100073 -0.0572502
21 2 49.182 18.5106 41.433 -0.850077 2.35674 -1.75058 -0.104678 0.0700116 -0.0914853
22 1 54.7555 7.31353 2.04615 0.921747 -0.666618 1.64921 -0.155372 0.358559 -0.348208
23 2 24.1556 1.62274 3.10601 5.59179e-04 1.99517 -0.332946 0.148461 0.611823 0.119643
24 2 32.1743 52.0455 54.7913 2.16073 -0.555198 0.858608 0.124382 0.291126 -0.115059
25 2 46.8224 14.5176 31.5406 -0.452528 -0.911029 0.48061 0.562065 -0.00198186 0.633311
26 1 -0.447234 27.1692 -1.11112 -0.865418 -1.34352 1.36602 0.00142997 0.0696014 0.265243
27 1 43.6636 0.928111 40.2551 -3.858 -1.99728 -1.13664 -0.0492555 -0.611686 -0.590383
28 1 28.6605 -1.99865 32.5847 -2.23982 1.20487 1.422 -0.277292 0.115144 -0.0619784
29 1 0.339731 33.2912 13.1549 -2.0894 0.44797 0.416461 -0.313587 0.289165 1.02316
30 1 16.7652 55.8087 0.829953 -2.1894 1.33778 0.878767 0.184596 -0.0509877 -0.509638
31 2 0.0358535 54.3344 18.2587 1.50177 -0.66997 0.182681 0.117684 -0.233661 -0.361543
32 1 45.7355 48.3895 26.8095 0.729941 1.17535 -3.82889 -0.0289549 0.289115 -0.071469
33 1 9.42021 20.6737 29.0664 0.542757 2.04837 0.0125141 -0.106711 0.132149 0.0271449
34 1 44.8535 21.1411 29.8056 2.12178 -2.9037 0.554779 -0.107943 0.0633381 0.0733234
35 2 34.8583 -2.76141 20.4889 1.9783 2.38431 0.558413 0.168668 0.387541 0.10907
36 1 39.1209 36.5107 7.15551 -3.51133 -0.780846 -0.434202 -0.0779576 -0.409805 -0.00122042
37 1 -1.19203 3.07866 31.5673 -0.953567 0.23265 -0.9126 0.226648 -0.468328 -1.24452
38 2 49.8209 4.4563 49.2084 0.293056 0.229276 1.49293 0.327553 -0.39699 -0.561279
39 2 24.9055 34.6766 51.1765 -1.12787 -3.09287 -2.5365 0.0106822 0.418277 -0.227498
40 2 51.0785 38.1714 40.3783 2.01822 -0.461127 -0.54324 0.417882 0.762186 0.0322731
41 1 8.65428 23.4703 19.9976 -0.854409 -1.41283 2.75307 -0.315348 0.406523 -0.222974
42 1 -2.79764 54.954 38.4105 0.0555892 1.48868 -0.639356 -0.270747 -0.430052 0.285824
43 1 33.4803 3.64599 48.3521 -3.31016 -4.43283 2.42561 -0.979243 -0.837957 0.410485
44 1 46.5601 19.3897 15.1759 -2.53557 1.38174 0.97487 -0.0164606 0.0187583 0.115442
45 1 23.1424 33.8622 53.3722 0.429413 0.115179 0.522452 0.630733 -0.457449 -0.153793
46 1 37.6859 40.1143 -1.06268 2.20644 0.223215 -2.671 -0.475658 -0.396476 0.530575
47 1 46.1648 10.888 14.8081 3.06215 0.227532 -1.13467 -0.208151 0.447211 0.485525
48 2 12.3142 16.5038 19.3803 0.930406 1.56864 -1.46559 -0.0495561 0.473181 -0.349029
49 1 7.91706 30.4192 0.989097 1.44708 1.77333 -1.2598 -0.320799 0.787416 0.28428
50 1 34.4183 4.6009 14.4504 -4.6693 2.82029 1.11947 0.719892 -0.304736 -0.648181
51 1 12.3079 32.4676 53.0135 -1.29123 1.10042 -1.44873 -0.277575 -0.302932 0.177654
52 2 30.4294 29.4488 34.8895 0.765191 1.47605 3.47593 -0.164677 0.687942 -0.397027
53 1 36.0073 37.0963 11.3074 0.678006 0.237155 0.748963 -0.0474882 0.753321 -0.38185
54 1 34.705 1.48721 3.92058 0.307075 1.87198 -1.06493 0.412095 0.274106 0.103759
55 1 33.9574 -1.63865 16.9087 1.74839 -0.294867 2.00523 0.75254 -0.504533 -0.220258
56 1 26.7864 26.1923 40.0229 -2.70904 -0.643455 -0.155937 0.131538 -0.227827 0.831035
57 1 -2.76718 50.8212 41.4888 -2.85981 -0.691138 0.959889 -1.08842 -0.110372 -0.331527
58 2 45.2954 22.2335 -1.52908 -2.1986 1.23597 0.563216 -0.315755 -0.294931 -0.418936
59 1 21.2459 -2.32241 36.2858 1.74106 0.242493 -1.93478 0.393691 -0.426324 -0.00968126
60 1 12.7915 6.78671 55.1726 3.59768 2.49259 0.0107829 0.316193 -0.345994 -0.175338
61 1 35.8164 31.0526 33.3104 -1.00687 -0.295006 0.183546 0.191864 0.207688 -0.341469
62 2 17.7084 48.1049 37.7792 -1.92393 0.477719 -2.19316 -0.0391031 0.200421 -0.221634
63 1 41.7641 9.70871 24.2981 -2.63186 1.80008 0.501849 -0.562498 1.34389 0.183581
64 1 8.84326 5.56283 10.5467 1.17585 -0.00512263 1.37584 -0.262281 0.597368 -0.395792
65 1 8.26154 29.6471 51.3865 1.09443 4.9404 -2.00541 -0.382566 0.107293 0.107871
66 1 18.4352 53.5211 46.2924 -1.30165 -0.69038 -0.245902 0.529091 0.771673 -0.409679
67 1 21.1166 12.537 54.3735 0.0393132 1.22053 -0.468217 -0.219468 0.786863 -0.553517
68 1 1.97057 22.0682 8.02273 -0.312533 2.85775 0.439921 -0.073063 0.0509521 -0.383276
69 1 21.7177 48.3115 53.685 0.979661 -1.26804 0.492536 -0.438078 -0.694921 -0.056324
70 1 27.7341 49.4249 23.1805 -0.57636 1.83361 0.716794 0.254932 -0.0065472 -0.68504
71 2 41.4871 26.3761 4.29923 -1.98308 1.3893 -3.26146 -0.268803 -0.175769 0.768464
72 2 47.7993 28.9437 50.4744 -0.382492 1.6745 -0.0821987 -0.543287 0.238177 -0.18875
73 1 8.43171 11.3496 27.7841 1.67513 0.366505 -1.24022 -0.322638 -0.878269 0.411675
74 1 36.3494 8.28132 -3.18759 0.2877 -1.37536 0.0825632 0.23548 -0.245369 -0.552544
75 1 36.3951 22.8585 -3.0871 -1.59045 -0.790741 -0.48273 0.359819 0.00972265 0.0766714
76 1 18.6011 5.56288 38.5739 -2.08467 -0.691237 1.23379 -0.177882 -0.411817 0.33196
77 2 14.9273 19.0318 -2.48702 -2.12758 0.737568 -0.504693 0.302306 0.327507 0.0885453
78 1 38.7236 -0.585719 49.2746 1.07997 2.64255 -0.522923 0.744627 -0.0906605 -0.444761
79 1 0.960773 39.1253 6.70666 1.3114 0.544833 -1.71112 -0.0970269 -0.136106 0.328346
80 1 39.6069 39.8621 -2.8667 1.06099 2.7426 2.27884 -0.245607 0.472634 -0.10432
81 1 28.0885 36.2302 -0.248817 0.0713797 0.730437 -1.81754 -0.504095 0.441358 -0.114383
82 1 48.7059 -0.270353 38.716 1.86342 1.20381 -0.968311 0.199409 -0.220909 -0.259475
83 2 52.5562 46.932 13.9283 1.31302 -3.55478 1.18589 0.46429 0.230308 -0.453756
84 1 45.4076 7.59925 39.612 1.72811 -0.271032 1.00386 0.380619 0.180924 -0.477383
85 1 41.0419 50.4173 -0.921275 0.165472 -0.253342 -1.24613 -0.31431 0.226986 0.623301
86 1 39.3507 15.5301 7.14358 -1.96371 0.737472 -0.471204 -0.0622386 0.549964 -0.0156816
87 1 21.7441 3.19481 44.5381 -1.05547 -0.380217 -0.820471 -0.134089 -0.0462199 0.194446
88 1 -2.62438 13.4007 6.07476 1.36111 -1.41629 0.150882 -0.665183 -0.61227 -0.00264609
89 1 13.3096 49.9037 33.7465 -1.53792 -2.29021 0.987049 -0.469123 -0.52736 -0.305333
90 1 45.492 48.234 32.2829 0.108624 -0.508121 -2.68747 0.336288 0.734716 0.0046384
91 1 21.0912 29.8748 4.30181 4.24475 -0.74343 1.40371 -0.357172 0.330342 0.68543
92 1 55.8233 -0.39544 40.142 3.44631 -0.757342 -0.319623 -0.49046 0.180149 -0.270761
93 2 19.8221 47.4521 33.089 1.00502 -1.31667 -0.142829 0.0955896 -0.0812882 0.117029
94 2 4.89337 47.5845 30.2152 0.61385 0.00616455 -0.807067 -0.258842 -0.621366 0.147796
95 1 52.0102 51.4841 29.0528 -0.943003 0.711526 0.406991 -0.609402 -0.0324239 -0.243533
96 1 43.27 -3.30403 37.9905 2.43732 2.41258 1.48859 0.0207506 0.344102 0.353697
97 1 56.1332 28.0912 20.816 1.69942 -0.768202 -0.949565 -0.436541 -0.158561 -0.370515
98 1 11.2765 20.9469 15.9505 -3.32369 -3.79899 -0.170393 -0.114938 -0.179885 0.264669
99 1 8.64295 33.8651 26.8556 0.61951 -0.945076 -0.748093 0.672301 0.303365 0.305351
100 2 54.7955 54.7274 11.8568 -0.0902591 2.74747 -0.756777 0.448593 0.113806 0.529999
101 2 6.2761 11.059 15.462 -0.227902 1.87479 0.249564 -0.279778 0.250157 0.283329
102 1 43.0961 34.7843 54.0528 -2.04393 0.847794 -2.10539 0.0462433 -0.171495 -0.363447
103 1 7.39207 52.1131 5.16249 2.62 0.634537 1.05164 0.550958 0.593513 0.240274
104 1 30.5316 40.5221 37.06 1.41218 -0.680632 -2.86885 0.0862259 -0.108462 0.0481251
105 1 9.42079 41.0217 45.6032 -1.89508 -2.32666 1.25975 0.202976 -0.470411 -0.168113
106 1 7.61705 26.2376 4.71024 -0.510466 1.38335 -2.31733 -0.134314 0.156799 -0.569092
107 1 26.107 7.51066 24.9537 -0.972985 1.78495 -3.55904 0.123169 0.36719 0.0743031
108 2 0.693609 33.556 39.986 2.80087 0.341591 -4.50192 0.424294 -0.0917569 0.022452
109 2 53.4638 -1.06627 28.74 0.796041 0.0340078 -0.333041 -0.0238263 0.277423 0.386883
110 2 32.7721 21.7182 7.33443 -0.971103 -3.10016 -0.979513 0.354954 -0.709175 0.219035
111 1 42.4111 44.0692 24.6936 -1.42079 -1.47556 3.1654 0.91245 0.25576 0.0711389
112 1 17.5333 10.4074 40.5876 3.64023 1.29355 1.7649 0.204122 -0.548129 -0.13512
113 1 4.61618 56.1914 44.1902 0.989401 1.39044 -1.0313 -0.526201 0.37866 0.00764824
114 1 0.985254 51.8192 34.7107 3.6081 0.254418 -1.79935 0.501807 -0.451204 -0.361796
115 2 53.5975 9.27236 43.8062 -1.25824 1.49654 -1.46892 0.334459 0.649338 0.364346
116 1 11.8546 36.0957 34.1739 1.20976 -2.51649 -0.539631 -0.457484 -0.154867 -0.425114
117 1 33.3819 29.5557 0.499056 -0.614856 2.53551 2.51002 0.493239 -0.35493 0.111644
118 1 35.9365 -2.66544 43.3741 -0.647958 2.6958 -1.78712 0.17775 0.112167 -0.130038
119 1 -0.20094 49.0878 38.2817 3.43971 -0.677896 2.16359 -0.0595159 0.238711 0.764845
120 1 49.755 1.59256 -2.51812 -3.07053 -0.0855768 -1.89662 0.122511 -0.135341 -0.410816
121 1 47.486 13.4826 34.2262 -1.57271 0.0753111 2.54665 0.371961 0.3328 0.360182
122 1 18.8465 22.518 32.3993 1.42406 -3.38356 0.582701 0.418875 0.228274 -0.234375
123 1 25.8736 25.7808 22.8749 -0.446902 -1.02691 -1.06396 0.408689 -0.185513 0.0378643
124 1 10.4002 54.169 25.9167 2.96078 1.16844 -2.59995 -0.607975 -0.567667 0.238516
125 2 7.60338 27.7778 46.6393 -0.14842 0.01614 -1.04678 -0.166338 -0.505309 0.385793
126 2 32.2496 22.69 34.5064 1.69513 0.548 0.207404 -0.233682 -0.471095 -0.199508
127 1 22.8849 21.6762 34.9352 -3.75919 -1.69873 -1.02057 -0.590134 0.21234 0.596328
128 2 54.3424 40.0832 7.12153 -0.438518 0.231023 -1.5103 -1.00487 0.0249259 0.0443229
129 1 32.0465 55.4492 44.0153 -0.357363 -1.5237 1.01683 0.280396 -0.3828 -0.63596
130 2 11.181 55.3955 40.905 -0.0574991 -1.5775 -1.49239 -0.141089 -0.109188 -0.343633
131 1 11.6141 23.9156 -2.07217 -2.18589 3.73496 -0.753131 0.402828 0.297832 0.185389
132 1 22.3102 36.9579 55.2814 -2.79819 -0.457538 1.56115 0.269569 -0.303137 0.632527
133 2 3.82345 24.8881 42.1769 0.324828 2.01034 -1.24155 -0.177212 -0.611505 0.304051
134 1 18.614 39.0622 24.498 -0.996679 1.74321 0.137078 0.104774 -0.275149 0.586801
135 2 18.6819 3.56558 54.138 0.10854 -1.64107 -0.26441 -0.589617 0.666687 -0.148306
136 1 53.3802 49.8896 27.8507 0.781219 4.81231 -0.943298 -0.165997 0.225884 -0.507871
137 2 34.4504 50.0842 20.5199 -1.29492 0.0868649 0.802946 -0.282688 -0.32667 -0.210136
138 1 24.0958 22.8585 39.888 -0.393251 -0.641112 -0.266696 0.989667 -0.125815 -0.155662
139 1 -0.834199 32.8984 33.8771 1.82005 -0.893284 1.79549 -0.494843 -0.337996 -0.260678
140 1 53.5726 42.2729 37.9268 -0.756973 -0.161329 -1.58816 -0.783812 -0.179949 0.0297881
141 1 20.9159 -0.670885 27.0053 1.71965 0.175703 -2.10535 0.290906 0.270107 -0.167938
142 1 14.797 5.25511 41.1847 1.59465 1.09766 2.68136 0.640403 -0.03401 0.0721025
143 1 15.1688 22.5555 29.6396 0.941168 4.23451 -0.473631 0.211568 0.121099 -0.342533
144 1 26.6757 51.3583 38.0656 -2.99271 -0.82938 0.301259 -0.306948 0.303197 -0.442023
145 2 26.1236 -0.0627541 5.01715 0.675382 -1.44007 0.182721 0.431541 0.382265 -0.0266703
146 2 55.4079 36.077 26.191 -0.972282 0.578094 -1.43749 -0.013578 -0.21545 0.0534349
147 2 44.6559 53.1421 31.9418 0.986492 -0.929205 -1.16093 0.536767 0.209232 -0.204728
148 1 16.5871 14.7395 54.1059 -0.200539 1.08544 -3.69668 -0.173833 -0.198104 0.788568
149 1 -1.09959 32.0234 6.90115 -1.25679 -0.82708 -0.833881 0.0880078 -0.600652 0.264482
150 2 24.6523 29.7811 12.2668 3.28956 0.398137 3.99306 -0.554279 -0.410667 -0.038998
151 1 11.8286 5.53891 19.5206 -2.19577 2.82997 -0.856487 -0.407446 -0.708047 0.0740848
152 2 42.7474 35.0146 13.5772 1.3186 2.0192 2.88909 0.862311 -0.107268 -0.0622063
153 1 14.1272 36.5592 37.8291 -0.573422 -1.51653 -0.094841 -0.168042 -0.0482606 0.0835574
154 2 20.7722 10.6298 18.9166 -0.489931 -0.379003 -1.67834 -0.454268 0.0686386 0.174572
155 1 54.7872 0.937768 12.8991 -1.7585 1.73959 -0.232363 0.116044 -0.31593 -0.0878343
156 1 55.7812 31.8954 3.46926 2.75619 -0.733712 -1.30042 0.455857 -0.215012 0.07302
157 1 42.835 53.5113 29.5943 -2.59422 -0.099415 -2.10495 0.403137 0.267167 0.181527
158 1 18.0582 32.3527 25.994 -2.32028 -2.13242 0.204926 -0.512819 -0.276942 0.754363
159 1 40.0528 22.8218 47.3571 -3.95342 0.148528 -2.58186 0.24924 0.11522 -0.245777
160 1 44.9752 29.5358 45.7698 -3.2951 -3.86217 -0.255932 0.317836 -0.0722214 -0.210341
161 1 37.4676 39.9551 23.7602 4.38255 3.25605 -2.17991 -0.0662513 0.284868 -0.638599
162 1 48.1819 51.9101 42.2522 1.19722 -1.26044 0.849519 0.195814 -0.360968 -0.0726707
163 1 38.972 9.41428 -3.24293 -1.46015 -1.18305 -1.29106 -0.321478 -0.302661 0.143335
164 1 37.8091 28.0422 25.2583 1.22519 3.34091 0.550484 0.114595 -0.137951 0.212032
165 1 6.68669 11.032 10.7118 1.27751 -0.305002 -0.343415 0.0489267 0.386404 -0.121927
166 1 16.5953 42.2729 21.487 1.386 -0.10719 -0.547657 -0.542746 -0.169144 0.0950979
167 1 55.4092 49.7294 37.1828 4.01926 -0.44413 -0.755362 0.189891 -0.0365255 -0.0863068
168 1 18.4543 44.5472 8.59687 3.68661 -0.62236 3.26183 0.236097 -0.932632 0.112197
169 1 42.0403 41.4385 38.3227 1.8085 0.967756 0.525918 0.116284 -0.38558 0.27299
170 1 12.5938 26.2329 46.1729 -3.98225 -0.238386 -1.49674 -0.0538057 -0.103493 -0.578236
171 2 29.9943 25.5301 32.2806 -1.89527 0.00212895 0.69004 0.298967 0.269317 -0.327045
172 1 -3.58807 5.20348 34.3505 -0.459859 0.249091 -0.590391 -0.497472 -0.189722 -0.675289
173 1 52.8966 -1.40426 -2.42148 -0.529313 -3.40123 -0.80248 0.30807 0.479504 0.551287
174 2 22.1933 2.3063 0.618257 -0.193185 0.326011 1.47646 1.13866 -0.241549 -0.0991364
175 2 13.5592 30.4503 38.2067 1.78324 -1.86689 -0.381419 0.36324 0.29183 -0.175709
176 1 24.3706 25.7806 2.53077 3.21439 -0.899205 0.611278 0.910703 0.0561512 1.17797
177 1 47.5661 13.1925 -0.655862 0.257651 -0.484321 -2.16263 -0.537766 0.0856486 -0.187652
178 2 8.68262 41.6305 39.623 -1.34646 -1.16523 -0.891009 -0.0639879 0.0991019 0.354765
179 1 8.80103 33.5956 35.9677 2.18238 -3.49862 1.8346 -0.0369661 -0.087931 -0.337498
180 1 10.5554 5.30775 45.1992 -3.93647 1.1792 -2.04595 -0.629672 0.538294 -0.191179
181 2 38.8238 -3.36511 1.46536 -3.14392 0.270969 -0.453641 0.258856 0.148697 0.260395
182 1 12.0355 28.8818 29.7468 -2.74065 -3.92598 -1.81543 -0.378117 0.550573 -0.193406
183 2 0.850598 49.633 53.6876 -1.53626 2.77667 -1.48135 -0.572495 -0.159088 -0.503288
184 2 35.7211 5.53642 17.116 1.01131 3.35114 -0.214304 0.165191 -0.139928 -0.556548
185 1 43.023 -0.446892 -3.45512 -1.32093 0.743579 -1.17869 0.922918 -0.0441344 -0.682171
186 1 53.669 46.5109 20.4501 1.78404 -1.71856 -0.231647 0.0228924 0.404487 0.171353
187 1 33.9364 49.8796 50.6769 -0.957891 1.90419 -0.00452017 -0.00135165 0.34469 -0.456303
188 2 5.45182 31.9189 1.98519 -1.85594 -0.312017 -1.35478 -0.493265 -0.934586 -0.209563
189 1 14.3463 47.7064 50.678 1.05269 1.18876 4.13311 -0.753269 0.0697268 0.802692
190 2 -2.95249 0.489448 49.6037 0.584149 1.75496 1.71692 -0.205555 -0.529503 0.64736
191 1 26.4314 9.79162 46.1519 0.30581 1.29261 -0.00910523 0.487614 0.496081 -0.269525
192 2 24.4112 49.3785 38.8943 -0.647394 0.774045 -0.49352 0.39235 -0.0372264 0.0244209
193 1 30.911 46.7733 1.77214 2.02163 0.617945 -0.14118 0.0944141 0.464146 -0.289403
194 2 43.3274 44.622 47.8287 0.485784 0.244085 3.2403 -0.208047 -0.113693 0.37613
195 2 18.7076 42.2275 32.2568 -1.78291 -0.802977 -1.4122 0.153243 -0.319179 -0.247396
196 1 26.8791 0.446882 7.47361 0.845203 -1.09191 -1.07812 -0.177037 0.0626497 0.138746
197 1 1.92094 24.602 30.7274 0.0340089 -1.9942 1.00472 0.0968846 0.279807 -0.479616
198 1 34.0365 15.1811 41.9493 -2.4412 -1.43452 1.92592 0.407425 0.204456 -0.11871
199 1 23.6834 -1.46105 12.8137 2.58821 -0.407056 0.308949 0.440514 0.0158661 -0.393396
200 1 38.6876 16.8159 -0.274829 -0.184456 -0.888579 0.308803 -0.146861 0.984028 0.804736
201 1 55.1644 5.10755 10.5539 0.65269 -1.3059 -1.5015 0.111436 0.021123 -0.235895
202 1 46.821 -0.839295 37.0222 -0.674279 1.43315 -1.52641 0.0790656 -0.178815 0.0339464
203 1 21.5055 0.114163 36.8762 0.0175813 -3.92732 -2.08778 -0.677838 0.395066 -0.221576
204 1 17.5697 38.3186 40.2487 -3.62434 -0.847029 2.02486 0.351273 0.364261 -0.0590626
205 2 13.8154 2.11734 54.0659 0.509106 0.222052 -0.936167 -0.363942 -0.0112171 0.0415077
206 1 48.3773 25.747 27.226 -2.47342 -0.184025 -3.83794 0.743652 -0.106388 -0.180797
207 2 0.478719 52.73 6.83458 -1.88807 0.606471 -0.883458 -0.393623 0.357639 -0.305575
208 1 27.6518 1.26643 -3.40132 -1.38035 -1.01945 -3.14568 -0.309422 -0.190184 -0.136154
209 2 28.4467 9.63108 -2.86708 1.77037 0.921891 -2.3324 0.113492 0.413187 -0.229774
210 2 1.12077 28.7656 31.9897 -0.803466 -2.271 -1.71193 0.169222 -0.204635 0.44495
211 1 36.1974 17.1733 28.2028 2.05299 -2.23755 -2.30982 -0.330686 0.148893 0.43859
212 1 3.29754 23.0106 37.5401 -1.62854 -1.11078 0.872261 -0.550733 0.268138 0.443919
213 1 5.03135 16.6767 0.648274 6.52293 -1.12825 4.85746 -0.0295751 -0.184503 0.255904
214 1 51.6125 12.4695 19.2572 -1.41373 -2.1242 0.39538 -0.196534 0.0257605 -0.655574
215 2 4.54231 19.2723 19.6918 -1.89621 -2.64696 0.981619 0.299885 0.207056 -0.255859
216 2 48.738 39.7481 33.4057 -0.575829 0.758287 0.0997989 -1.31304 -0.661985 -0.588865
217 1 37.0132 13.8648 33.22 2.08437 1.52348 2.43372 0.450057 -0.41235 0.446996
218 2 36.3249 11.9124 44.4385 -2.85951 0.861134 1.04106 0.878323 0.0187274 0.444962
219 2 32.5202 50.1472 25.0894 -0.55105 -0.586259 -2.73975 -0.29405 0.745974 -0.244669
220 1 41.4311 5.25679 41.1833 2.17205 -1.4925 -3.5289 -0.0748193 -0.808235 0.141247
221 2 51.5861 29.3118 54.0131 0.777342 0.475129 1.29529 -0.859534 0.160744 0.0401403
222 1 43.8289 13.5704 44.3996 -4.35567 -1.14787 0.121247 -0.194177 -0.141369 0.279562
223 2 18.8192 8.06298 52.5646 2.26302 0.813465 -0.60377 -0.350349 0.261065 -0.911573
224 1 2.26371 17.6182 18.8817 1.1203 0.0648359 1.88981 0.107522 0.219089 -0.0807142
225 1 28.6172 50.6155 27.7547 -2.86356 1.35473 1.62472 0.895218 0.103743 0.371234
226 1 26.1082 48.9857 37.065 -2.19477 0.200162 -2.14363 0.602857 -0.0168583 -0.069389
227 1 49.9987 30.1323 28.9789 -0.199913 -5.13274 0.227595 1.02838 0.340845 -0.477727
228 1 6.25226 2.44387 28.2938 2.38595 1.88994 0.526805 -0.107028 0.275547 0.165228
229 1 1.11448 50.8623 20.65 1.80994 1.72963 3.42529 -0.03847 -0.12273 1.12158
230 1 4.17836 6.43309 -2.58817 4.34935 2.07721 1.19236 0.52636 0.482213 -0.365627
231 1 46.0209 10.7001 28.1757 2.87977 -3.55963 -0.305567 0.2778 0.323973 -0.163705
232 2 10.2254 2.48654 45.068 -0.693227 -2.54274 -1.97135 -0.660409 0.135332 -0.575403
233 2 16.3923 39.8274 45.8084 -0.946541 -2.8849 -0.169043 -0.412871 5.1748e-04 -0.543394
234 1 38.3937 31.4897 8.71924 3.18249 -0.0103262 -0.578124 0.772986 0.0540989 0.529265
235 1 24.5214 45.8726 23.5671 1.49066 2.09041 -0.179823 0.105189 -0.142788 0.156343
236 1 14.8584 48.0961 8.36373 0.147583 -2.55191 -4.10491 0.266775 -0.502268 -0.559359
237 1 52.2289 -0.160076 47.0197 -0.0725579 -1.17534 1.64867 -0.0551263 0.460835 -0.0698838
238 1 -2.76791 12.7721 8.56757 -0.639159 -2.29164 1.87142 -0.222384 -0.583306 0.0567326
239 2 7.61653 49.451 26.2976 -1.53007 0.0888583 -1.39654 -0.0244524 -0.388378 0.359496
240 1 18.1664 40.1541 36.3061 0.737111 -0.598001 -1.44508 -0.0658085 0.614414 0.364869
241 2 35.473 -2.05555 25.2684 -0.420118 1.85507 -1.19484 0.475621 0.153613 -0.3212
242 2 34.9107 10.5158 42.1327 1.49571 2.1156 -0.950689 -0.0504852 0.0810426 -0.514926
243 1 38.1683 26.3548 27.3475 1.30614 0.738825 -1.24089 0.229795 0.744738 -0.0852869
244 2 27.3567 -2.88979 23.7534 2.40349 0.071433 1.39559 0.267594 -0.00131003 0.807412
245 1 55.4632 55.406 42.0484 -1.6562 -0.663032 -1.80974 -0.210435 -0.195238 -0.145401
246 2 24.5378 -2.93846 41.6097 -2.70001 0.417365 -1.02187 0.817131 0.446276 -0.285808
247 1 46.841 44.7477 24.4996 -1.53059 -0.84171 0.299465 -0.0862898 -0.0190562 -0.37092
248 2 40.7619 -2.68484 24.4999 3.1548 -2.01342 -2.96593 -0.210853 0.375076 -0.273853
249 1 42.2947 31.3888 3.26421 0.220642 -1.98078 -2.22085 -0.495982 -0.546571 0.0876536
250 2 25.4514 39.7117 50.0924 -0.458455 -0.67088 -0.235662 0.524833 0.396275 -0.0579794
251 1 4.14884 1.05174 -1.67235 -1.75497 4.25556 1.67767 -0.306909 -0.0803698 -0.245469
252 2 23.3008 41.1692 4.31613 0.439087 2.5819 1.59741 -0.329187 -0.363476 -0.381901
253 1 45.3128 37.4964 18.1407 2.83869 1.74069 -1.28621 -0.210634 -0.386159 -0.756958
254 1 55.1724 13.9127 34.6467 -0.584171 5.71313 -1.23174 -0.109808 -2.80538e-04 0.0920122
255 1 35.6288 -3.674 50.4812 -1.26983 1.14406 -2.54783 -0.110326 0.270829 -0.568851
256 1 32.3407 16.3351 6.75534 -2.66065 -4.20373 1.1144 -0.782084 -0.570683 0.0442785
257 2 15.5833 10.6463 6.79665 2.14391 0.746375 1.03708 -0.202219 0.100792 0.33678
258 1 -2.02881 42.5381 14.5908 3.05888 2.58828 -3.62423 0.218228 -0.467559 0.129323
259 2 46.1481 50.4969 33.4533 -0.26549 -0.394385 1.01767 0.18126 -0.126488 -0.200789
260 1 -1.19391 10.9596 45.5354 -0.477186 1.73481 0.522977 0.307048 -0.397684 0.918289
261 1 53.0088 52.7125 39.2969 0.815903 -3.0815 0.802349 -0.225049 0.377535 -0.00479379
262 2 22.9412 1.33978 47.0252 1.23685 -3.95204 -0.90366 0.191659 0.166099 0.0533781
263 1 22.5925 20.5612 24.8511 -0.0300859 3.14466 2.01653 0.395954 0.520256 0.113141
264 2 49.4165 34.6749 38.4619 -2.36473 -3.17314 1.33945 -0.365776 -0.115579 0.204355
265 1 13.793 29.8665 43.5006 -0.294978 4.45398 0.103555 -1.18214 -0.408656 -0.272936
266 1 12.7306 2.92976 36.6414 1.60879 -5.26039 3.74906 -0.109469 -0.292685 0.3619
267 1 52.9396 35.7215 54.2922 0.20227 2.82001 -2.03474 -0.647014 -0.777093 -0.18755
268 1 29.7182 32.4512 34.5419 -1.18478 5.53506 -0.0846539 -0.0158436 -0.361275 -0.630492
269 1 46.2679 13.361 44.9594 1.87864 0.679893 1.11821 -0.0834065 0.284655 -0.0301974
270 1 46.9572 26.9436 28.8118 -0.333878 -3.48258 0.901946 -1.0246 -0.0526814 -0.170266
271 1 9.59021 29.2235 45.3798 2.20799 -0.843531 0.195416 -0.358121 0.297171 -0.781469
272 1 27.197 38.3841 13.1244 0.917796 0.403574 -0.44218 -0.065139 -0.296194 0.0306414
273 1 19.8803 30.0815 52.4041 -2.13445 2.73066 -0.800076 -0.660736 0.447155 0.543704
274 1 14.9362 -0.270064 53.1356 -1.9838 -2.20521 0.435334 0.301048 0.191139 -0.191427
275 1 26.0921 10.0127 53.4056 -0.450358 1.19281 -1.24861 -0.580464 0.141451 0.300984
276 1 2.27201 39.3684 37.4223 0.400394 1.87561 1.32226 -0.0137333 -0.544061 0.829611
277 1 16.9087 51.5293 33.8803 2.44745 -1.62749 1.1368 0.2927 -0.378247 -0.184387
278 1 6.62247 -0.464626 45.2497 1.09603 1.20706 -3.13373 0.401685 -0.4788 0.200842
279 1 38.5117 52.3432 14.1801 -0.675771 -4.55708 0.685195 0.529845 -0.278041 -0.519658
280 2 25.8548 9.23303 18.6663 3.12457 2.32431 -0.424341 -0.133898 0.210697 -0.63329
281 2 41.4113 23.8982 51.6933 0.390794 0.561707 -1.05261 -0.285667 0.42553 -0.338598
282 2 17.0875 42.7918 38.2347 -0.00912142 -1.12813 0.121514 0.499363 -0.337105 0.166532
283 2 44.7532 -1.44569 10.8674 0.543073 -0.566489 0.569319 -0.255136 -0.397532 -0.691773
284 2 18.7831 52.087 19.7928 -2.35084 -0.0211603 -2.42291 -0.0366765 0.110498 -0.282106
285 1 48.1622 6.02701 36.3135 -0.796382 2.32735 1.57213 -0.32588 0.0329581 -0.513979
286 1 20.1044 56.1004 13.6732 0.271177 0.596844 2.19143 -0.309923 -0.488031 0.468302
287 1 45.2039 47.8667 22.234 -3.7239 0.473097 -2.41311 -0.386864 0.524921 -0.326576
288 1 13.5014 43.4236 44.7999 0.353281 -4.24349 0.503382 -0.39816 -0.562663 0.0646958
289 1 2.483 8.16375 29.404 -1.54437 0.472351 -1.26804 -0.459919 0.142612 -0.0454434
290 2 -1.09959 45.7249 3.02109 -2.92148 -2.62585 0.901946 0.128072 0.34095 -0.118496
291 2 17.1621 36.6906 23.9217 2.41292 -1.3732 0.0494354 -0.0112441 -0.304447 -0.416861
292 2 13.6243 -1.70377 22.8267 0.862627 1.00809 2.65322 0.781419 0.730544 0.203743
293 1 3.54681 51.0682 3.51018 -1.86043 -1.43201 -0.153067 -0.00318768 -0.745108 -0.244492
294 1 34.4851 44.6457 6.64105 0.427267 0.452424 -1.21076 -0.072556 0.520805 -0.231039
295 1 13.4923 17.748 12.1623 1.70868 -3.61564 -1.18744 0.190334 0.0916768 0.0110173
296 2 23.2983 44.8989 8.45334 1.10806 2.16111 0.709434 -0.517742 0.30949 0.257491
297 1 29.802 18.6606 49.734 0.505762 -2.64792 2.38307 0.342964 -0.390148 -0.679905
298 1 38.3019 13.5795 45.48 -0.700679 -1.11905 2.40616 -0.0468533 -0.0097675 0.128448
299 2 9.75081 9.76154 22.2761 0.997573 1.94345 0.254646 0.0593046 -0.18604 -0.256992
300 2 52.3605 37.8066 6.20502 1.45181 -1.55356 0.0659371 -0.396044 0.280181 0.717877
301 2 0.924148 4.83067 -0.967579 0.493873 -0.965581 2.1894 -0.619168 0.610359 0.40982
302 2 1.12247 47.5127 49.2341 -0.446624 0.839822 -1.59542 0.0854332 0.656973 -0.0184606
303 2 39.4164 3.6133 28.5957 1.48952 1.35313 -1.95089 -0.010193 -0.819241 -0.133735
304 2 55.7772 49.1491 34.5075 2.41446 -1.47237 0.349498 0.817644 -0.72937 0.0436404
305 2 23.5564 -0.138713 -1.10991 -1.68671 -2.2717 0.965546 0.30375 -0.312258 -0.0237167
306 1 25.6903 41.044 22.1117 1.83994 0.377793 -2.6453 0.400438 -0.498386 -0.112531
307 2 35.1189 6.9216 39.4839 -1.56467 -1.74133 -1.09939 0.495601 -0.0489038 -0.192846
308 2 3.64156 53.0727 7.05957 -0.98032 -2.90092 -1.98909 0.112653 0.0572762 0.505814
309 2 13.1815 32.6812 9.85955 -2.21444 -0.667945 0.88137 0.0148873 -0.139442 0.0906125
310 1 40.1231 5.77452 8.19901 -0.0127648 -0.259151 1.08848 0.0970391 -0.526072 0.0100206
311 2 37.9543 43.4657 20.0054 0.186625 -1.13462 -4.13507 0.405312 -0.155364 -0.056753
312 1 37.8406 6.42848 53.1421 -0.903611 -0.6958 -1.9705 -0.32498 -0.150862 0.210004
313 1 21.6641 5.11598 49.384 2.42757 -4.24765 1.5727 -0.305379 -0.116357 0.159461
314 2 54.0878 23.8013 19.4348 -0.751445 2.6938 1.65939 0.492635 -0.181099 0.324623
315 2 19.6982 17.4865 49.0745 1.87486 -3.06396 -2.49563 -0.521914 -0.486991 -0.25386
316 1 -2.29041 55.3956 10.0444 -1.37863 -0.517654 0.403703 -0.313569 0.0216613 0.255357
317 1 9.75315 21.2801 45.7581 -0.550072 -3.67588 3.27475 -0.388266 -0.390511 -0.175665
318 1 -3.48932 -2.21066 41.8692 0.0848087 1.05694 -1.26036 0.323373 -0.0876014 0.1184
319 1 13.2218 52.617 30.6181 4.27295 -5.00155 -4.48949 0.16004 0.0791782 -0.57173
320 1 16.2322 45.447 29.1216 1.26698 0.86707 -0.342251 -0.118872 -0.424528 0.0552922
321 1 16.0561 15.3064 20.2717 4.01059 -0.117296 1.29744 -0.204779 0.378819 -1.00623
322 1 6.23594 47.1015 18.1399 -1.81985 -0.957069 -1.77175 0.123065 0.157807 -0.00574367
323 1 1.52835 41.2655 42.4557 0.726092 -0.638764 0.528528 0.384493 -0.402763 0.22961
324 2 12.4123 28.8369 16.325 -1.87855 -0.304226 1.82091 -0.350017 0.648131 -0.131515
325 2 26.0836 46.4313 7.80335 0.987 0.13794 -0.603637 0.0147154 -0.109487 0.431472
326 1 43.6755 33.9436 15.9882 3.0531 -1.01856 -0.511176 0.0971263 0.457437 -0.608344
327 2 46.3373 38.4361 11.4272 2.187 -0.463082 3.46047 0.651474 -0.390917 -0.586429
328 1 16.8131 12.4734 23.7264 -2.11906 0.55742 0.704416 -0.339874 0.129805 -0.00437014
329 1 31.8783 4.72394 20.1742 3.33836 -0.878368 -2.10266 0.356729 0.455968 0.0967807
330 2 20.1112 24.721 15.0823 -1.32903 -3.30143 -1.05446 -0.0150205 0.0833971 -0.392188
331 1 32.4275 -2.36788 2.07088 -1.98323 -1.49276 -0.355837 -0.0342254 0.089631 0.363355
332 2 36.2227 54.7415 24.7105 -3.62269 0.778166 1.49467 0.110144 -0.255478 0.0865407
333 1 27.5416 52.7533 5.41265 4.19724 -1.58277 -1.49708 0.181238 0.0743492 0.228846
334 1 38.9598 51.5631 44.5232 -0.0545814 -2.34089 -2.01154 -0.117408 -0.0360908 0.354907
335 1 49.397 52.6276 -1.57871 2.98588 -0.0724009 2.39553 -0.677108 -0.0306697 -0.0853306
336 1 45.2959 19.5275 13.0477 0.440186 -0.31697 2.02791 -0.443285 -0.196384 -0.0464159
337 1 -3.04392 -2.35784 55.938 -1.74128 3.45585 -1.58402 0.322966 -0.731223 0.451787
338 1 18.4821 48.5679 47.5654 -0.819997 0.496771 -2.59635 -0.0168517 -0.196946 0.110912
339 1 19.6267 18.5066 8.51653 4.07098 -0.284392 -3.49313 -0.225835 -0.20347 -0.0487382
340 2 0.336226 37.8114 16.7953 2.53737 0.844294 1.581 0.543557 -0.339507 0.0963584
341 1 49.579 48.2383 55.3825 -1.67561 1.30671 0.299629 0.51258 -0.189741 -0.674789
342 1 14.1404 48.9211 40.5615 -5.87363 0.508246 0.140949 0.150934 0.524088 0.136338
343 1 23.0111 28.6131 49.4476 -0.0450441 0.306653 -1.13264 -0.542981 8.7925e-04 0.199732
344 2 31.2966 8.15676 31.0036 2.40251 -0.911352 -0.461218 -0.579419 -0.501811 -0.0331013
345 1 20.1316 9.36134 16.6039 -0.941588 -1.48718 -1.90687 -0.0807282 0.106221 0.145476
346 2 40.4224 36.1233 4.62672 -1.37362 1.4362 1.51219 0.0175962 -0.294847 -0.132935