ITEM: TIMESTEP
22000006
ITEM: NUMBER OF ATOMS
13500
ITEM: BOX BOUNDS pp pp pp
-3.69043 56.1904
-3.69043 56.1904
-3.69043 56.1904
ITEM: ATOMS id type x y z vx vy vz fx fy fz
1 1 26.0668 54.8848 24.4056 2.9483 -2.6576 -4.28969 -0.240791 -0.464994 -0.149286
2 2 42.5003 36.7675 37.0402 0.734547 -1.07359 -2.35308 0.131869 -0.170504 -0.13301
3 2 44.3701 24.924 17.8857 0.0895849 1.70935 -2.69186 0.0703962 0.71508 0.0575385
4 1 53.9034 13.276 54.6889 -0.24691 0.873366 -0.176779 0.220842 0.489143 -0.20004
5 1 30.7704 28.5943 25.8999 -1.01373 -1.71358 -0.0273995 -0.210263 -0.478676 0.179598
6 2 38.5053 42.2287 52.6743 1.4982 -0.733779 0.816861 -0.211583 0.153045 0.247719
7 1 43.881 29.5 16.3227 2.40704 0.127613 1.53329 0.173423 0.937059 -0.0846459
8 1 1.93229 -0.619582 42.7477 5.18908 -2.21498 0.36912 0.185279 0.420057 -0.345155
9 1 51.402 28.6366 17.323 -1.59285 -1.7595 0.637828 0.158044 -0.476056 0.180381
10 1 33.3754 53.1303 14.589 -1.39106 0.657286 -1.9568 0.0203663 -0.128678 -0.313406
11 2 33.0177 43.54 55.2 -1.86685 1.56632 -1.13539 -0.124151 -0.397446 -0.0296114
12 1 1.64465 47.9483 -1.78343 -0.613198 -0.27998 1.47413 -0.0779744 -0.0305278 0.0406814
13 1 30.159 6.18182 3.00977 -1.61704 -0.9394 -1.75883 -0.0425799 -0.0600794 0.0745992
14 1 13.2752 32.4203 36.4165 -1.65095 1.93876 2.65457 0.0752389 0.255195 0.171439
15 1 35.8917 3.19176 48.1231 0.770638 -0.645156 -1.44008 0.36178 0.201424 -0.252885
16 2 45.4766 21.3884 21.7553 2.33318 -4.4642 1.36277 0.25922 0.062907 -0.303104
17 1 7.66272 1.86327 43.4515 0.0952925 -2.42983 -3.03961 0.205108 -0.422191 -0.284761
18 1 52.7939 29.9032 42.7366 2.55521 -0.54025 1.96187 0.22533 -0.381481 -0.0115547
19 1 42.8532 15.7149 45.0688 -2.49891 0.536821 0.967784 0.0268282 0.647415 -0.596431
20 1 20.0877 9.84729 4.09947 0.561152 -2.53884 0.436173 0.219669 -0.204013 -0.0897185
21 2 49.182 18.4944 41.4423 -0.768513 2.21402 -1.66094 -0.0856139 0.255469 -0.111908
22 1 54.7394 7.3261 2.03827 1.07728 -1.14516 2.03192 -0.100403 0.42497 -0.287387
23 2 24.1566 1.61585 3.11566 -0.0732654 1.48832 -0.435425 0.0280818 0.571536 0.125179
24 2 32.156 52.0436 54.7759 1.97872 -0.805701 0.943412 0.294363 0.299561 -0.0877833
25 2 46.8222 14.5282 31.5375 -0.984532 -0.894965 -0.0751398 0.675628 -0.0380247 0.666038
26 1 -0.432683 27.1799 -1.113 -0.879533 -1.38163 1.05988 0.0242891 -0.00205807 0.23474
27 1 43.6891 0.948089 40.2572 -3.7544 -1.17095 -0.373077 -0.1069 -0.733163 -0.654276
28 1 28.676 -1.99955 32.5714 -1.785 1.01532 1.43564 -0.458084 0.193368 0.0384785
29 1 0.362236 33.287 13.1603 -1.6928 0.104838 -0.831623 -0.33044 0.272833 1.02034
30 1 16.7863 55.7893 0.827861 -2.40482 1.42806 1.4274 0.175648 -0.104887 -0.389679
31 2 0.0317714 54.331 18.2584 1.37954 -0.458048 0.45872 0.161728 -0.260173 -0.289157
32 1 45.7241 48.3752 26.8392 0.731407 0.835376 -3.59558 0.0225761 0.258584 -0.300544
33 1 9.42017 20.6597 29.0656 0.661015 1.81986 -0.0309508 -0.0878193 0.235392 0.0428166
34 1 44.8308 21.1658 29.8006 2.21711 -2.88129 0.414624 -0.0531672 -0.0947851 0.158072
35 2 34.8406 -2.77079 20.4865 1.82854 2.01498 0.433535 0.176695 0.477259 0.182236
36 1 39.1449 36.512 7.16437 -3.39231 -0.260182 -0.416282 -0.107879 -0.436231 -0.0262454
37 1 -1.1756 3.08108 31.5672 -1.18604 0.818946 0.520602 0.155696 -0.490699 -1.09872
38 2 49.813 4.45939 49.1881 0.0252425 0.539576 1.94207 0.300359 -0.333692 -0.505418
39 2 24.915 34.7003 51.1889 -1.16677 -3.40995 -2.30981 0.0866879 0.343076 -0.295874
40 2 51.0568 38.1743 40.3787 1.63707 -1.13343 -0.574328 0.471521 0.831202 0.0445822
41 1 8.66459 23.4842 19.9765 -0.471591 -1.80992 2.97195 -0.309931 0.252439 -0.144475
42 1 -2.79102 54.9319 38.4134 0.337039 2.01039 -0.957771 -0.187556 -0.432293 0.24074
43 1 33.4997 3.68335 48.3286 -2.02418 -3.25175 1.86856 -1.11714 -1.07816 0.492919
44 1 46.5742 19.381 15.172 -2.40522 1.26256 0.78554 -0.192337 0.174756 0.187748
45 1 23.1429 33.8569 53.3597 -0.321008 0.643389 0.649636 0.598529 -0.405768 -0.0551045
46 1 37.6628 40.1065 -1.03129 2.75266 0.752126 -3.19166 -0.428998 -0.470095 0.325093
47 1 46.1338 10.8927 14.8227 3.25576 -0.28827 -1.69331 -0.120072 0.398642 0.433285
48 2 12.3106 16.4957 19.3927 0.9379 1.14387 -1.15627 0.0252966 0.523901 -0.372679
49 1 7.90934 30.4078 1.0077 1.7613 0.770046 -1.59001 -0.198871 0.851645 0.263007
50 1 34.4566 4.58317 14.4417 -5.47542 3.14151 1.85222 0.616323 -0.230811 -0.553967
51 1 12.3208 32.4556 53.0182 -0.946242 1.47499 -1.60877 -0.284143 -0.313923 0.0887831
52 2 30.4215 29.4384 34.858 0.887862 0.872721 3.7727 -0.127601 0.727214 -0.315957
53 1 35.999 37.0951 11.3039 0.697849 -0.695017 1.2142 0.0136182 0.771918 -0.380955
54 1 34.7021 1.48082 3.93596 -0.199198 1.46687 -1.198 0.419273 0.383452 0.119775
55 1 33.945 -1.6308 16.8943 0.77544 0.313805 2.25666 0.836793 -0.494536 -0.194742
56 1 26.8085 26.1964 40.0242 -2.82775 -0.396055 -1.12407 0.0740539 -0.175281 0.759211
57 1 -2.74145 50.8192 41.4753 -1.50094 -0.549173 1.30638 -1.13679 -0.116521 -0.233829
58 2 45.3063 22.2239 -1.52693 -1.84298 1.42973 0.849128 -0.5171 -0.166218 -0.249542
59 1 21.2356 -2.3183 36.2983 1.16704 0.766072 -1.8899 0.541185 -0.43409 -0.0551388
60 1 12.7685 6.77084 55.1635 3.07558 2.8364 0.211373 0.526637 -0.222907 -0.154601
61 1 35.8225 31.0546 33.3054 -1.16797 -0.532787 0.550181 0.0772863 0.183632 -0.261069
62 2 17.7261 48.0956 37.7926 -1.8895 0.30391 -1.9693 -0.0307264 0.210646 -0.295294
63 1 41.7776 9.70591 24.2955 -1.80654 0.039822 0.295105 -0.772084 1.50996 0.155732
64 1 8.83773 5.57175 10.5383 1.42266 -0.764831 1.82147 -0.145569 0.646215 -0.334108
65 1 8.25609 29.6075 51.3958 1.54537 4.69253 -2.10421 -0.360672 0.279142 0.0600862
66 1 18.4501 53.5225 46.2869 -1.83378 -1.57956 0.163237 0.34614 0.686014 -0.257929
67 1 21.1169 12.5351 54.3664 0.250086 0.206493 0.255183 -0.128267 0.872495 -0.634882
68 1 1.97964 22.0472 8.02251 -0.231195 2.66602 0.921165 -0.0593204 0.256724 -0.408927
69 1 21.7091 48.312 53.673 1.48011 -0.440654 0.53584 -0.388072 -0.657114 -0.0155841
70 1 27.7395 49.4038 23.1723 -0.86942 1.78273 1.5397 0.229868 0.0836122 -0.667521
71 2 41.4975 26.3645 4.3337 -1.69847 1.47648 -3.73892 -0.398341 -0.033055 0.381073
72 2 47.7943 28.9306 50.4676 0.0773915 1.40114 0.00811721 -0.536731 0.405555 -0.0188299
73 1 8.42198 11.3467 27.7954 2.00634 1.40335 -1.64428 -0.224518 -0.820229 0.251859
74 1 36.3453 8.29618 -3.18262 0.0110798 -1.05592 0.77722 0.217756 -0.273014 -0.585382
75 1 36.4066 22.8656 -3.07466 -1.99104 -0.70946 -0.521196 0.305325 -0.136973 -0.0106831
76 1 18.619 5.57224 38.5623 -1.82487 -0.168966 0.786019 -0.238986 -0.442268 0.398828
77 2 14.9484 19.029 -2.47451 -2.30346 0.50246 -0.577953 0.118733 0.225679 0.0881036
78 1 38.7152 -0.599547 49.27 0.0876684 2.71773 0.028918 0.873181 -0.0433126 -0.460689
79 1 0.95711 39.1167 6.72735 1.39332 0.668144 -2.05316 -0.0414404 -0.0657025 0.239633
80 1 39.5935 39.8388 -2.8769 1.31218 2.10068 2.31467 -0.172198 0.571164 0.0368559
81 1 28.0849 36.2238 -0.227447 0.697768 0.142754 -1.62488 -0.517766 0.519264 -0.192922
82 1 48.6858 -0.273343 38.719 1.54598 1.40946 -0.666608 0.31489 -0.118072 -0.233292
83 2 52.54 46.9552 13.9209 0.843319 -3.68042 1.52586 0.639135 0.0852398 -0.353259
84 1 45.3902 7.60759 39.598 1.26205 -0.484876 1.52726 0.379264 0.170841 -0.383211
85 1 41.0349 50.4134 -0.900628 0.530863 -0.472479 -1.97336 -0.286814 0.132292 0.571603
86 1 39.3621 15.53 7.15255 -1.80271 0.0451591 -0.387877 -0.196377 0.587488 -0.117809
87 1 21.753 3.20412 44.5402 -0.825492 -0.298131 -0.974669 -0.242184 -0.0867496 0.0616632
88 1 -2.63016 13.4127 6.07927 2.12513 -0.667074 0.16198 -0.594259 -0.61295 -0.0149852
89 1 13.3232 49.9123 33.735 -0.925893 -1.5093 1.31812 -0.534756 -0.742083 -0.237483
90 1 45.4872 48.2353 32.3024 -0.289829 -1.34907 -2.57754 0.311749 0.641383 -0.180174
91 1 21.0572 29.8813 4.30031 4.57564 -1.13193 0.517369 -0.197831 0.310326 0.761496
92 1 55.7852 -0.381076 40.1392 3.95527 -0.918249 0.0134995 -0.354665 0.0871355 -0.275011
93 2 19.8163 47.4563 33.0887 0.91568 -1.23336 -0.265631 0.108929 -0.109265 0.171682
94 2 4.89373 47.5764 30.2209 0.806016 0.504704 -0.887204 -0.195841 -0.556451 0.0442764
95 1 52.0075 51.4712 29.0474 -0.212094 0.730147 0.77545 -0.585703 -4.27826e-04 -0.36117
96 1 43.2459 -3.31307 37.9771 2.36516 1.93349 1.00815 0.0894842 0.433319 0.427057
97 1 56.1092 28.0959 20.8232 2.15497 -0.50975 -0.44412 -0.317306 -0.259326 -0.45492
98 1 11.3065 20.9774 15.9561 -3.07525 -3.4119 -0.485182 -0.280748 -0.438693 0.252387
99 1 8.64621 33.872 26.8627 -0.168365 -1.30808 -1.05803 0.615016 0.294192 0.208538
100 2 54.7895 54.6979 11.8687 -0.417223 2.56965 -1.20173 0.329979 0.293959 0.521723
101 2 6.28274 11.0493 15.4641 -0.0272661 1.62786 -0.0204672 -0.190379 0.324903 0.351335
102 1 43.1076 34.7744 54.0597 -1.99969 1.01355 -1.56658 -0.111307 -0.103058 -0.513953
103 1 7.37935 52.1035 5.16139 1.88717 -0.0592986 0.707072 0.641373 0.539282 0.32073
104 1 30.5195 40.5229 37.0799 1.30046 -0.537224 -2.83113 0.0941007 -0.127254 -0.0989862
105 1 9.44168 41.0335 45.5869 -2.12772 -1.65602 1.44049 0.181519 -0.618619 -0.131107
106 1 7.62601 26.2273 4.73199 -0.440858 1.18911 -1.57365 0.0261494 0.161251 -0.642508
107 1 26.1153 7.50363 24.9827 -1.08888 1.28996 -3.56614 0.0688816 0.440044 -0.0521485
108 2 0.680041 33.5509 40.0179 2.40097 0.419855 -4.42176 0.507992 -0.0969819 -0.195192
109 2 53.4496 -1.05775 28.7432 0.833927 -0.23244 -0.640192 -0.0654486 0.352842 0.341508
110 2 32.779 21.7417 7.34833 -1.20108 -2.43098 -1.14251 0.190037 -0.852234 0.16731
111 1 42.4221 44.077 24.6694 -2.45787 -1.75161 2.96489 0.792333 0.204325 0.249107
112 1 17.5078 10.3991 40.569 3.34182 1.87564 1.86962 0.275924 -0.406526 -0.0426125
113 1 4.61195 56.1738 44.1933 1.59802 0.869815 -1.02559 -0.474065 0.467787 -0.0126002
114 1 0.966389 51.8075 34.7208 2.8619 0.893594 -1.30572 0.71934 -0.605122 -0.447134
115 2 53.6008 9.26754 43.8141 -1.49049 0.904932 -1.74052 0.217746 0.734235 0.28147
116 1 11.8468 36.1122 34.1738 1.76635 -2.27177 0.0408119 -0.461546 -0.242578 -0.52126
117 1 33.3871 29.5329 0.486799 -1.19332 2.91749 2.40442 0.459656 -0.279423 0.0523347
118 1 35.9397 -2.67795 43.3828 -0.837624 2.45649 -1.59674 0.134506 0.273136 -0.179546
119 1 -0.220859 49.0879 38.2648 3.38173 -0.963121 1.19303 0.143528 0.231864 0.825015
120 1 49.7731 1.59963 -2.49692 -3.09481 0.0672464 -1.33831 -0.0703312 -0.118544 -0.503461
121 1 47.4943 13.4873 34.2055 -2.02759 -0.331849 2.04541 0.38206 0.335169 0.455683
122 1 18.8394 22.5468 32.392 0.883327 -3.51976 0.773441 0.464162 0.00788553 -0.0844969
123 1 25.8792 25.7881 22.8845 -0.92347 -0.746971 -1.10349 0.371958 -0.266987 0.0300519
124 1 10.3784 54.149 25.9385 3.5927 1.8484 -2.79488 -0.439693 -0.552285 0.0885069
125 2 7.60926 27.7756 46.6431 0.0123724 0.402459 -1.33158 -0.211325 -0.408931 0.293543
126 2 32.2338 22.685 34.5017 1.81667 0.945563 0.380169 -0.0607759 -0.472424 -0.208239
127 1 22.9129 21.692 34.9437 -2.98725 -1.92024 -1.69781 -0.669713 0.15732 0.515866
128 2 54.3342 40.0775 7.13923 0.539758 0.215874 -1.56178 -1.29264 0.00349533 0.0786073
129 1 32.0491 55.4511 43.9993 -0.721667 -1.01611 1.70185 0.316226 -0.444293 -0.487914
130 2 11.1852 55.3994 40.9115 0.0703445 -1.45663 -1.17821 -0.163672 -0.169415 -0.386822
131 1 11.6375 23.8881 -2.05717 -2.59081 3.2755 -0.985365 0.267638 0.439098 0.195863
132 1 22.3345 36.9571 55.2638 -2.93465 -0.10979 0.748219 -0.0394954 -0.262863 0.697479
133 2 3.8267 24.8707 42.1833 0.453608 2.40296 -1.48481 -0.128865 -0.325556 0.271248
134 1 18.6247 39.0434 24.5001 -1.1407 2.03703 -0.531484 0.136854 -0.211667 0.511661
135 2 18.6811 3.58737 54.1316 0.623048 -2.18791 -0.123927 -0.622261 0.62585 -0.184027
136 1 53.3655 49.8458 27.8552 0.971732 4.40889 -0.276992 -0.147572 0.416836 -0.579731
137 2 34.4574 50.0756 20.5145 -1.03367 0.37022 0.956089 -0.327559 -0.341903 -0.153345
138 1 24.1044 22.8639 39.8854 -1.57557 -0.478119 -0.0381837 0.947608 -0.135768 -0.216959
139 1 -0.843068 32.9021 33.8596 2.27346 -0.483114 2.01311 -0.25645 -0.333698 -0.0991023
140 1 53.567 42.2687 37.9363 0.23548 0.0821267 -1.62929 -0.841033 -0.21324 0.0387519
141 1 20.9053 -0.663186 27.021 1.31233 -0.202878 -1.8505 0.369139 0.348183 -0.241232
142 1 14.7906 5.25218 41.1595 0.825344 1.12439 2.57238 0.614425 -0.00936155 0.0977378
143 1 15.1655 22.5236 29.6407 0.676817 3.95838 -0.0359219 0.216143 0.314775 -0.370822
144 1 26.6979 51.3592 38.0577 -2.58426 -1.16661 0.848151 -0.352913 0.254208 -0.456987
145 2 26.1199 -0.0424257 5.02185 0.241901 -1.77702 0.126346 0.574388 0.409415 0.153817
146 2 55.4073 36.0688 26.2027 -0.946979 0.771881 -1.48707 -0.0427019 -0.241015 0.0647479
147 2 44.6446 53.1425 31.9487 0.521197 -1.08118 -0.979315 0.559871 0.151758 -0.218485
148 1 16.5907 14.7331 54.1309 -0.0267343 1.32969 -4.479 -0.110474 -0.204915 0.50487
149 1 -1.08156 32.0253 6.91438 -1.27201 -0.0556447 -1.06541 -0.0611043 -0.66269 0.115812
150 2 24.6251 29.7757 12.239 3.54895 0.701328 3.91462 -0.0865071 -0.307136 0.201798
151 1 11.8482 5.5188 19.5297 -1.65916 3.67 -0.930501 -0.468037 -0.676668 0.0490852
152 2 42.7351 34.9957 13.5576 0.586875 2.07431 2.8922 0.855443 -0.0339721 0.0416781
153 1 14.1342 36.5681 37.8269 -0.292606 -1.45426 -0.160028 -0.287284 -0.0497173 0.0260065
154 2 20.7762 10.6374 18.9326 -0.12968 -0.381388 -1.80375 -0.391805 -0.0623303 0.1295
155 1 54.7936 0.929764 12.9044 -1.85967 2.032 -0.136478 0.0557102 -0.168261 -0.0672612
156 1 55.7532 31.8986 3.48649 2.15559 -0.468983 -1.38907 0.5228 -0.212683 0.0746592
157 1 42.853 53.5057 29.611 -3.07583 -0.438717 -2.31908 0.395655 0.28774 0.180633
158 1 18.0763 32.3663 25.9961 -1.60913 -1.67545 -0.703494 -0.644063 -0.463849 0.735475
159 1 40.0814 22.8221 47.3704 -4.1409 0.0281041 -2.211 0.0715417 0.0818415 -0.356829
160 1 44.9975 29.5652 45.7652 -3.58002 -3.71107 0.0121549 0.159645 -0.160278 -0.227952
161 1 37.4297 39.9266 23.7748 4.19985 2.8945 -1.23128 0.373209 0.30006 -0.91967
162 1 48.1672 51.911 42.2404 0.890716 -0.800684 0.971417 0.302097 -0.387074 -0.130678
163 1 38.9784 9.42704 -3.22354 -1.05075 -0.809606 -1.45634 -0.348058 -0.305122 0.130394
164 1 37.7967 28.0146 25.2553 1.06269 3.39885 0.293392 0.147533 0.0298098 0.207218
165 1 6.68242 11.0404 10.7182 1.16605 -0.674269 -0.140165 0.128044 0.21941 -0.217166
166 1 16.5843 42.2684 21.4932 2.03414 0.0881792 -0.653907 -0.522291 -0.151922 0.0826262
167 1 55.37 49.7261 37.1854 3.67062 -0.402602 -0.691935 0.370667 -0.032666 -0.0182872
168 1 18.4285 44.5425 8.57649 3.27604 0.506595 3.08065 0.4258 -0.914957 0.177046
169 1 42.022 41.4247 38.3166 1.63459 1.3916 0.138025 0.160131 -0.312486 0.358797
170 1 12.629 26.2343 46.1764 -3.79808 -0.0834508 -0.791784 -0.23421 -0.149737 -0.571992
171 2 30.0092 25.5311 32.2723 -2.07718 -0.200904 0.923798 0.134673 0.203588 -0.222033
172 1 -3.57812 5.20683 34.3497 0.0645311 0.369732 0.213663 -0.364904 -0.00912575 -0.642612
173 1 52.8946 -1.36722 -2.40424 -0.853864 -3.84695 -1.46738 0.222717 0.261168 0.540853
174 2 22.1998 2.30963 0.613555 -1.12395 0.552635 1.50664 1.05009 -0.289601 0.0202983
175 2 13.55 30.4649 38.2058 1.3889 -2.07931 -0.242074 0.553544 0.216446 -0.144399
176 1 24.3502 25.7879 2.5386 1.99199 -0.883096 -0.911822 1.06735 -0.0756244 1.30714
177 1 47.5553 13.2004 -0.631952 0.91776 -0.549941 -1.88831 -0.544678 0.025066 -0.257112
178 2 8.69812 41.6357 39.6275 -1.27664 -1.22261 -1.16539 -0.0968166 0.0433286 0.296903
179 1 8.78848 33.6209 35.9488 2.18988 -3.30245 2.19799 0.0152103 -0.221097 -0.265015
180 1 10.588 5.30704 45.2089 -3.058 0.473526 -1.68839 -0.801594 0.612721 -0.386981
181 2 38.8461 -3.35836 1.47691 -3.30778 0.149402 -0.669742 0.140418 0.137653 0.249573
182 1 12.0593 28.9147 29.7592 -2.16101 -4.43998 -1.50651 -0.558263 0.301034 -0.30826
183 2 0.868224 49.6037 53.6899 -1.07672 2.86462 -1.04348 -0.501585 -0.0601219 -0.518438
184 2 35.7111 5.51534 17.1185 0.807476 3.36068 0.224856 0.307022 0.0968338 -0.472812
185 1 43.0329 -0.445236 -3.44051 -2.31263 0.711161 -0.376327 0.703579 0.0957884 -0.626994
186 1 53.6472 46.5207 20.4545 1.70723 -2.15074 -0.462632 0.0995969 0.31109 0.207583
187 1 33.9418 49.8595 50.6676 -0.94657 1.41197 0.60142 -0.0175794 0.459672 -0.532736
188 2 5.47083 31.9166 2.00208 -1.4119 0.462347 -1.12554 -0.543258 -0.880536 -0.323917
189 1 14.3377 47.6913 50.6422 1.96047 1.05224 3.05567 -0.737899 0.148587 0.950394
190 2 -2.94953 0.48119 49.5855 0.752905 2.11219 1.14245 -0.195202 -0.31918 0.700278
191 1 26.4313 9.78841 46.145 -0.300583 0.684145 0.312458 0.502108 0.49719 -0.257845
192 2 24.4182 49.3656 38.8946 -0.961664 0.791889 -0.47218 0.352407 -0.0110917 -0.0697094
193 1 30.8941 46.7648 1.77887 1.84117 0.0364966 0.1943 0.196648 0.491112 -0.262353
194 2 43.318 44.6145 47.7981 0.659017 0.334208 2.82941 -0.205664 -0.101912 0.579097
195 2 18.7245 42.2284 32.2653 -1.88002 -0.544503 -1.12485 0.084695 -0.284006 -0.424309
196 1 26.8713 0.463244 7.4881 1.03336 -1.16324 -1.18924 -0.135168 0.0557299 0.0506704
197 1 1.92817 24.6196 30.7159 -0.123646 -2.29401 1.56627 0.161833 0.21922 -0.44576
198 1 34.0555 15.1967 41.9288 -2.84029 -1.66857 2.08489 0.253217 0.18102 -0.149161
199 1 23.6658 -1.44981 12.8133 1.97721 -0.43523 0.719091 0.551046 0.0290028 -0.278515
200 1 38.6849 16.8304 -0.265738 -0.0164559 -2.06843 -0.706951 -0.125691 0.947032 0.860391
201 1 55.1515 5.1241 10.5692 0.497261 -1.32809 -1.19199 0.141344 0.0187109 -0.26743
202 1 46.8208 -0.843691 37.0313 -0.729105 1.56329 -1.49862 0.0125146 -0.0355769 -0.0725866
203 1 21.5035 0.154581 36.8886 0.819007 -4.27803 -1.778 -0.633297 0.190345 -0.27798
204 1 17.6027 38.3237 40.2282 -4.01152 -1.28046 2.09586 0.292188 0.345911 -0.0626883
205 2 13.8136 2.12239 54.0656 0.805795 0.233503 -0.956037 -0.337922 -0.0166107 0.0121566
206 1 48.3943 25.7482 27.2552 -3.34706 -0.080735 -3.51152 0.692598 -0.063387 -0.341637
207 2 0.499702 52.7188 6.84605 -1.51362 0.292461 -0.591359 -0.479918 0.378499 -0.376363
208 1 27.6607 1.28086 -3.36862 -0.947921 -0.826772 -2.89665 -0.390436 -0.123111 -0.265276
209 2 28.4324 9.62987 -2.84104 1.63212 0.563632 -2.09518 0.204156 0.426887 -0.317317
210 2 1.13483 28.7821 32.0032 -0.910163 -2.01541 -2.05858 0.0828216 -0.386821 0.377837
211 1 36.1766 17.1945 28.2225 2.45439 -2.41284 -2.70799 -0.333579 0.143897 0.223667
212 1 3.31446 23.0216 37.5321 -0.981861 -1.3964 0.335897 -0.499044 0.202347 0.425284
213 1 4.98572 16.6878 0.618533 6.32307 -0.990666 4.33013 0.33768 -0.0354928 0.595696
214 1 51.6155 12.4903 19.2531 -1.11208 -2.06532 1.09373 -0.290571 -0.114773 -0.485234
215 2 4.56449 19.296 19.6851 -2.08323 -2.7564 1.14726 0.151481 0.067296 -0.139847
216 2 48.7319 39.736 33.4009 0.469225 1.3135 0.585725 -1.1514 -0.650375 -0.55221
217 1 36.9959 13.8543 33.201 1.43468 1.94391 1.79244 0.611506 -0.28493 0.598144
218 2 36.3476 11.9097 44.4265 -3.50641 0.823197 0.652449 0.658732 0.064502 0.469946
219 2 32.5218 50.1476 25.1107 -0.308611 -1.21472 -2.49036 -0.271669 0.734666 -0.327445
220 1 41.4091 5.27081 41.2077 2.23336 -0.532687 -3.62878 -0.0306642 -0.760988 0.0289114
221 2 51.5698 29.3078 53.9949 1.50379 0.296688 1.29102 -0.834997 0.252689 -0.0406781
222 1 43.8574 13.5823 44.3949 -3.98182 -0.874631 -0.22746 -0.405565 -0.298678 0.292035
223 2 18.8022 8.06257 52.5589 2.49053 0.580713 0.130374 -0.199793 0.286068 -0.81059
224 1 2.26225 17.6211 18.8685 0.93103 -0.17439 1.90242 0.197466 0.177036 0.0528754
225 1 28.6435 50.5984 27.7431 -3.83752 1.13556 1.20478 0.708869 0.252004 0.312848
226 1 26.1286 48.9776 37.0786 -2.87925 0.199306 -1.97995 0.528549 0.016082 -0.191144
227 1 49.9984 30.1736 28.9741 -1.41137 -5.44917 0.778768 0.953427 0.192285 -0.421471
228 1 6.23848 2.43691 28.2898 2.46924 1.54604 0.358357 -0.038077 0.28267 0.111232
229 1 1.10717 50.8409 20.63 1.7851 1.8723 1.94324 0.0681121 -0.117635 1.289
230 1 4.15265 6.42453 -2.59117 3.62901 1.47072 1.59838 0.640374 0.509294 -0.304601
231 1 45.9939 10.7342 28.1767 2.44236 -3.82854 -0.0761572 0.433942 0.12805 -0.210613
232 2 10.2333 2.5139 45.0765 -0.147648 -2.58868 -1.47553 -0.627747 -0.0147329 -0.586588
233 2 16.4013 39.8465 45.8023 -0.574503 -2.81767 0.296602 -0.459025 -0.144925 -0.551893
234 1 38.3687 31.4885 8.7313 2.19838 -0.0327407 -1.1708 0.830468 -0.0174431 0.447667
235 1 24.5106 45.8495 23.57 1.28722 2.28279 -0.358652 0.224482 -0.178484 0.135512
236 1 14.8618 48.1077 8.39867 -0.194157 -1.87317 -3.33503 0.291078 -0.603821 -0.689367
237 1 52.2217 -0.141092 47.0004 0.0346471 -1.66798 1.69408 -0.124698 0.346933 -0.00789135
238 1 -2.75569 12.7912 8.55802 -0.34414 -1.5323 1.76419 -0.260907 -0.65413 0.112701
239 2 7.63405 49.4424 26.3098 -1.53995 0.423788 -1.64742 0.0568699 -0.406947 0.234163
240 1 18.1625 40.1578 36.3164 0.817699 -1.29533 -1.81378 -0.071493 0.531964 0.244552
241 2 35.4752 -2.06182 25.2771 -0.784423 1.7337 -0.900456 0.38684 0.122252 -0.365433
242 2 34.8961 10.5038 42.134 1.51938 1.98588 -0.514804 -0.012073 0.214923 -0.50559
243 1 38.1557 26.3523 27.3567 0.967653 -0.119789 -1.13011 0.316309 0.655428 -0.0927209
244 2 27.3382 -2.88206 23.7457 2.14531 0.066881 0.704824 0.332607 0.0127338 0.813982
245 1 55.467 55.402 42.0575 -1.36186 -0.389263 -1.57719 -0.266344 -0.251485 -0.231405
246 2 24.5625 -2.93194 41.6124 -3.35354 0.0244775 -0.735365 0.736092 0.477305 -0.382973
247 1 46.8469 44.749 24.4959 -1.401 -0.768258 0.738243 -0.120701 -0.0976036 -0.351585
248 2 40.732 -2.65928 24.5229 3.2811 -2.31748 -2.64632 -0.0960606 0.348861 -0.46427
249 1 42.2859 31.4005 3.28865 0.831439 -1.29573 -2.21864 -0.507634 -0.570411 -0.083345
250 2 25.457 39.7146 50.0873 -0.867742 -0.981778 -0.176284 0.441679 0.338294 -0.0791836
251 1 4.16757 1.02486 -1.67899 -1.34787 4.21597 1.96979 -0.351376 0.133362 -0.23662
252 2 23.297 41.1433 4.3084 0.741791 2.81193 1.89041 -0.385362 -0.194203 -0.317436
253 1 45.2839 37.4776 18.1494 3.01643 2.15708 -0.300669 -0.0932992 -0.30372 -0.855024
254 1 55.1683 13.871 34.6545 -0.449094 5.5638 -1.28484 -0.112365 0.229652 0.0039557
255 1 35.6355 -3.67318 50.4917 -1.04746 0.76547 -1.78276 -0.243011 0.343355 -0.675565
256 1 32.3563 16.3686 6.75225 -1.6327 -3.43747 1.03831 -0.898163 -0.674343 0.0823533
257 2 15.5687 10.6453 6.79507 2.2346 0.620114 0.738516 -0.0257574 0.191277 0.362226
258 1 -2.04398 42.5108 14.6235 2.72959 3.03797 -3.70488 0.309484 -0.279457 0.0188561
259 2 46.1453 50.4928 33.4424 -0.471997 -0.312211 1.18193 0.309874 -0.0635818 -0.188698
260 1 -1.18088 10.9482 45.5303 -0.816783 2.19345 -0.621349 0.249198 -0.36141 0.956153
261 1 52.9936 52.7314 39.2869 1.06467 -3.52088 0.774668 -0.184451 0.351518 0.0464861
262 2 22.933 1.37881 47.0266 1.03299 -4.01311 -0.937302 0.285152 -0.0072961 0.0265837
263 1 22.5958 20.5404 24.8361 -0.511 2.46784 1.82221 0.389547 0.582264 0.200303
264 2 49.4275 34.6972 38.4485 -2.03047 -2.98221 1.12717 -0.415695 -0.322981 0.291089
265 1 13.7933 29.828 43.4935 1.10892 4.87363 0.445323 -1.11149 -0.288145 -0.28791
266 1 12.7209 2.97646 36.6105 1.77138 -4.68898 3.19325 -0.164031 -0.626358 0.53845
267 1 52.9274 35.6926 54.2994 0.959063 3.6928 -1.71404 -0.594316 -0.666577 -0.332631
268 1 29.7264 32.4038 34.5371 -1.09623 5.83554 0.70774 -0.128686 -0.151434 -0.668208
269 1 46.247 13.3606 44.9451 1.88892 0.342652 1.10178 0.0631594 0.266035 0.0534868
270 1 46.949 26.9709 28.8033 0.909604 -3.39451 1.01541 -0.996671 -0.0756609 -0.0161707
271 1 9.57579 29.2309 45.369 2.55401 -1.19796 1.11219 -0.217312 0.28637 -0.720589
272 1 27.1892 38.3761 13.1317 0.954067 0.70206 -0.430842 0.00455026 -0.194491 -0.0483087
273 1 19.8958 30.0609 52.4055 -1.24264 2.11934 -1.39588 -0.80141 0.540978 0.432383
274 1 14.9565 -0.244114 53.1235 -2.24464 -2.37842 0.685066 0.132187 0.0989411 -0.217454
275 1 26.0928 10.0086 53.4093 0.28935 0.988101 -1.6066 -0.635212 0.190792 0.287042
276 1 2.27568 39.3473 37.4127 0.368207 2.45817 0.279672 0.0709804 -0.416344 0.873383
277 1 16.8933 51.5333 33.8683 2.07602 -1.15248 1.32964 0.310292 -0.399383 -0.135542
278 1 6.62127 -0.468908 45.2702 0.602089 1.75231 -3.34241 0.405114 -0.416531 0.151186
279 1 38.5161 52.3705 14.1757 -1.25823 -4.06213 1.27622 0.425905 -0.519748 -0.448841
280 2 25.8296 9.2201 18.6697 3.17497 2.11151 0.11554 4.82736e-04 0.280498 -0.628765
281 2 41.403 23.896 51.6932 0.596469 0.162897 -0.744149 -0.200721 0.512056 -0.380692
282 2 17.092 42.7947 38.231 -0.477287 -0.763919 -0.0814303 0.604576 -0.51719 0.315977
283 2 44.7428 -1.43478 10.8649 0.754711 -0.171851 1.15963 -0.24301 -0.524662 -0.702811
284 2 18.8038 52.0802 19.813 -2.29379 -0.120638 -2.14355 -0.0864999 0.124829 -0.366831
285 1 48.1607 6.01455 36.2958 -0.408925 2.19798 2.11819 -0.307034 0.175943 -0.385625
286 1 20.1025 56.0848 13.6617 0.615383 1.18298 1.56471 -0.256165 -0.474624 0.551939
287 1 45.2263 47.8594 22.2528 -3.20533 -0.169641 -1.97613 -0.454028 0.527453 -0.383187
288 1 13.5003 43.4495 44.7911 0.835756 -3.43542 0.345235 -0.390896 -0.741405 0.192977
289 1 2.4997 8.16588 29.413 -0.919577 0.273485 -1.21775 -0.56232 0.182704 -0.0360198
290 2 -1.06805 45.7413 3.02 -3.0249 -2.84301 1.03816 0.133359 0.179771 -0.206661
291 2 17.1455 36.6974 23.9205 2.37368 -1.07979 0.42579 0.0901859 -0.380033 -0.468931
292 2 13.6237 -1.70135 22.8073 0.171572 0.374898 2.42294 0.839336 0.752855 0.320113
293 1 3.56801 51.0688 3.51654 -1.81315 -0.457451 0.198897 -0.0656502 -0.84959 -0.328186
294 1 34.479 44.6392 6.6552 0.485608 -0.134765 -0.93817 -0.0253207 0.442519 -0.211675
295 1 13.4832 17.7795 12.1758 1.4896 -3.65447 -1.17052 0.166407 -0.0149957 -0.0323742
296 2 23.2887 44.8775 8.45366 1.49309 1.88049 0.470705 -0.390315 0.34223 0.299644
297 1 29.7987 18.6816 49.7052 0.0382697 -2.04164 3.11944 0.427518 -0.594662 -0.538129
298 1 38.3037 13.5921 45.4562 -0.558607 -1.1325 2.16348 -0.184256 0.0372117 0.260713
299 2 9.74778 9.75016 22.2743 0.93341 2.06293 0.465376 0.0872889 -0.104009 -0.240282
300 2 52.3403 37.8166 6.21257 1.69929 -1.74505 -0.516965 -0.192117 0.175025 0.654637
301 2 0.925478 4.84661 -0.975711 0.952585 -1.50535 1.75158 -0.467218 0.66334 0.611933
302 2 1.13341 47.5022 49.2401 -0.491796 0.272106 -1.5525 0.0224927 0.674976 -0.0759469
303 2 39.4008 3.60621 28.6099 1.47922 2.02168 -1.74619 0.0267146 -0.761572 -0.343312
304 2 55.7524 49.1517 34.5025 1.67688 -0.8152 0.298319 0.908462 -0.811844 0.0763299
305 2 23.5716 -0.114338 -1.10984 -1.89902 -1.91522 0.952854 0.198776 -0.520229 0.0451028
306 1 25.6779 41.0344 22.1333 1.25366 0.959531 -2.4784 0.553738 -0.456946 -0.15147
307 2 35.1304 6.9407 39.4881 -1.94475 -1.64219 -0.894748 0.407965 -0.178561 -0.284849
308 2 3.65617 53.0882 7.08257 -1.06094 -2.84023 -2.38797 0.0823865 -0.188539 0.440779
309 2 13.2029 32.6841 9.85753 -2.20509 -0.497826 0.783972 -0.0249301 -0.258243 0.135402
310 1 40.1198 5.77988 8.19564 -0.1335 0.367726 1.02378 0.100404 -0.494747 0.0909353
311 2 37.9508 43.4694 20.0398 -0.156509 -1.02774 -3.96833 0.400732 -0.0946046 -0.318935
312 1 37.8431 6.43886 53.1512 -0.545656 -0.47731 -2.2134 -0.257832 -0.202925 0.193643
313 1 21.6448 5.15519 49.3656 2.71924 -4.03502 1.36819 -0.180067 -0.22055 0.169947
314 2 54.0876 23.7799 19.4246 -1.18104 2.80579 1.38408 0.521212 -0.0944008 0.316551
315 2 19.6833 17.5117 49.0869 2.28973 -2.6056 -2.20794 -0.463337 -0.57544 -0.409448
316 1 -2.27287 55.3916 10.047 -0.967631 -0.533671 0.0777172 -0.358291 0.00584543 0.280143
317 1 9.76039 21.3088 45.7259 -0.095649 -3.12832 3.35924 -0.358295 -0.493847 0.0271799
318 1 -3.47993 -2.21132 41.8751 -0.32292 1.11979 -1.30862 0.343872 -0.0205094 -0.0355618
319 1 13.1925 52.6495 30.6495 3.9289 -4.98944 -3.6288 0.387545 -0.0826078 -0.820177
320 1 16.2244 45.4326 29.1239 1.39044 1.3469 -0.437404 -0.0875854 -0.36423 0.101001
321 1 16.0262 15.3122 20.2582 4.18054 -0.565193 2.49067 -0.0845042 0.355193 -0.951907
322 1 6.25669 47.1039 18.1562 -1.9366 -1.12416 -1.73614 0.0752563 0.117882 -0.0442022
323 1 1.53155 41.2644 42.4479 0.221011 -0.146618 0.266971 0.441338 -0.397767 0.195184
324 2 12.4301 28.8408 16.3131 -1.56175 -0.846111 1.83965 -0.386726 0.634961 0.080168
325 2 26.0759 46.424 7.81482 0.967488 0.263213 -0.944996 0.022945 -0.187803 0.376732
326 1 43.6467 33.9518 15.9922 2.89412 -1.56801 0.241863 0.152973 0.439703 -0.624461
327 2 46.3165 38.435 11.402 1.56506 -0.117911 3.85473 0.79856 -0.420262 -0.358352
328 1 16.8308 12.4734 23.7215 -1.62606 0.418374 0.712282 -0.460203 0.0972663 -0.00972124
329 1 31.8521 4.73925 20.1931 2.79959 -1.41165 -2.1872 0.514998 0.423363 0.0494331
330 2 20.1234 24.7479 15.0925 -1.29108 -3.28663 -0.710769 -0.0706502 -0.0966826 -0.412625
331 1 32.4414 -2.34738 2.08232 -1.92689 -1.5984 -0.779587 -0.0526315 0.085268 0.335483
332 2 36.2491 54.7262 24.6994 -3.6801 1.02518 1.38086 0.0431167 -0.329428 0.174613
333 1 27.5089 52.7587 5.43161 3.85682 -1.63622 -1.75752 0.360505 0.0193239 0.201886
334 1 38.9563 51.5743 44.5355 -0.00238343 -2.25535 -2.31876 0.0311758 -0.0986378 0.156336
335 1 49.3634 52.6206 -1.59031 3.75188 -0.0738659 2.48622 -0.583901 0.0363213 -0.0773101
336 1 45.2849 19.531 13.0353 0.95896 -0.0970899 1.98395 -0.407719 -0.16448 0.116144
337 1 -3.02014 -2.38063 55.9444 -2.12134 4.25285 -2.11606 0.306231 -0.587389 0.429294
338 1 18.4907 48.5568 47.5805 -0.760951 0.698967 -2.69243 -0.0785245 -0.137983 0.0555544
339 1 19.5952 18.51 8.54894 4.25223 -0.00848815 -3.30827 -0.0847628 -0.246525 -0.243456
340 2 0.325141 37.8002 16.7858 2.09046 1.15061 1.45427 0.48885 -0.386889 0.20089
341 1 49.5881 48.2207 55.3686 -2.24487 1.49737 1.09105 0.428836 -0.129137 -0.620808
342 1 14.191 48.9132 40.5572 -5.8555 -0.132264 -0.123125 -0.159252 0.5203 0.293279
343 1 23.0098 28.61 49.4509 0.574497 0.320274 -1.35027 -0.471876 -0.024256 0.158806
344 2 31.2742 8.16752 31.0058 2.80006 -0.493554 -0.431249 -0.373527 -0.481269 -0.0351185
345 1 20.1405 9.37851 16.6225 -0.860831 -1.60104 -2.0348 -0.0486279 0.0881764 0.0683091
346 2 40.4293 36.1079 4.62043 -1.35776 1.70317 1.58703 -0.0463412 -0.334763 -0.0536721