ITEM: TIMESTEP
22000005
ITEM: NUMBER OF ATOMS
13500
ITEM: BOX BOUNDS pp pp pp
-3.68798 56.188
-3.68798 56.188
-3.68798 56.188
ITEM: ATOMS id type x y z vx vy vz fx fy fz
1 1 26.0608 54.8876 24.4143 3.02117 -2.51139 -4.24123 -0.218958 -0.515309 -0.19866
2 2 42.4975 36.7688 37.044 0.704469 -1.03864 -2.32444 0.159451 -0.170186 -0.160444
3 2 44.3684 24.9208 17.8918 0.0754182 1.55884 -2.70471 0.064331 0.723626 0.0377065
4 1 53.9017 13.2755 54.6869 -0.314083 0.72517 -0.115802 0.219619 0.492185 -0.202505
5 1 30.772 28.5974 25.9 -0.948755 -1.5655 -0.0823905 -0.224249 -0.507622 0.182167
6 2 38.5012 42.2288 52.6706 1.54357 -0.763956 0.764465 -0.202599 0.124978 0.25528
7 1 43.8748 29.4998 16.3204 2.35673 -0.156295 1.5585 0.173954 0.932481 -0.0709387
8 1 1.92395 -0.612822 42.7455 5.13374 -2.33782 0.476296 0.213995 0.373515 -0.357782
9 1 51.4031 28.6398 17.3225 -1.64172 -1.61482 0.582202 0.152836 -0.488125 0.190055
10 1 33.3776 53.1268 14.5938 -1.39627 0.695305 -1.86037 0.00454078 -0.117122 -0.334532
11 2 33.0209 43.5353 55.1999 -1.83528 1.64665 -1.12967 -0.192193 -0.346408 -0.035427
12 1 1.64787 47.9471 -1.78407 -0.586642 -0.269112 1.4625 -0.10096 -0.0429013 0.0457789
13 1 30.1619 6.18533 3.01522 -1.60232 -0.921822 -1.78166 -0.0652356 -0.0619684 0.0638324
14 1 13.2796 32.416 36.4104 -1.67572 1.86043 2.60446 0.0766641 0.2735 0.176312
15 1 35.8895 3.195 48.1241 0.656176 -0.700863 -1.36356 0.396815 0.160882 -0.260519
16 2 45.4704 21.3977 21.7528 2.28053 -4.47652 1.4243 0.26087 0.0102741 -0.265013
17 1 7.66411 1.87 43.4561 0.0308709 -2.29505 -2.9495 0.219557 -0.481335 -0.328865
18 1 52.7867 29.9038 42.7314 2.48427 -0.421605 1.9645 0.258844 -0.403086 0.00752683
19 1 42.8569 15.7148 45.0652 -2.5063 0.338142 1.14963 0.00498525 0.66391 -0.593964
20 1 20.0871 9.85365 4.10039 0.492422 -2.47594 0.465283 0.2365 -0.227095 -0.0989327
21 2 49.1816 18.4907 41.4443 -0.751636 2.15754 -1.6385 -0.0813044 0.299681 -0.116242
22 1 54.7348 7.33007 2.0361 1.1062 -1.27668 2.11889 -0.0826195 0.432955 -0.271316
23 2 24.1569 1.61501 3.11845 -0.0762134 1.37059 -0.46245 -9.37395e-04 0.555282 0.125957
24 2 32.1516 52.0432 54.7717 1.91428 -0.869629 0.962199 0.33379 0.296672 -0.0805917
25 2 46.8226 14.5309 31.5373 -1.12946 -0.886433 -0.215948 0.684228 -0.0512704 0.663709
26 1 -0.42873 27.1826 -1.11281 -0.888632 -1.37958 0.990877 0.0296556 -0.0207484 0.226568
27 1 43.6952 0.952281 40.2566 -3.72391 -0.946213 -0.173616 -0.119152 -0.753987 -0.661089
28 1 28.6793 -1.99921 32.568 -1.64194 0.954728 1.42122 -0.495587 0.212285 0.0661699
29 1 0.367643 33.2863 13.1634 -1.59394 0.022945 -1.14056 -0.331719 0.266893 1.00746
30 1 16.7919 55.784 0.826969 -2.4599 1.46365 1.54162 0.170659 -0.119751 -0.352473
31 2 0.0311929 54.3295 18.258 1.34574 -0.403167 0.518138 0.170977 -0.26283 -0.267827
32 1 45.721 48.3718 26.8463 0.723586 0.760139 -3.49946 0.0338445 0.242271 -0.35635
33 1 9.4202 20.6566 29.0655 0.687185 1.74671 -0.0443502 -0.0799692 0.258352 0.0451689
34 1 44.8248 21.172 29.7995 2.23308 -2.849 0.363628 -0.0369719 -0.137194 0.180386
35 2 34.8363 -2.77234 20.4861 1.7929 1.91362 0.393618 0.177851 0.50002 0.199145
36 1 39.1506 36.5115 7.16676 -3.36182 -0.128093 -0.40768 -0.115675 -0.434939 -0.0331788
37 1 -1.17094 3.08119 31.5654 -1.23136 0.968493 0.847393 0.134587 -0.488085 -1.0487
38 2 49.8111 4.46003 49.1823 -0.0371188 0.608641 2.04929 0.289125 -0.313657 -0.488813
39 2 24.9174 34.7065 51.1914 -1.18835 -3.48389 -2.24778 0.105918 0.322525 -0.312584
40 2 51.0516 38.1758 40.3787 1.53791 -1.31214 -0.584599 0.48123 0.846458 0.0469002
41 1 8.66688 23.4881 19.971 -0.378617 -1.88293 3.01564 -0.305211 0.215839 -0.123032
42 1 -2.78938 54.9254 38.4144 0.390465 2.14321 -1.03002 -0.161818 -0.428318 0.22834
43 1 33.5028 3.69138 48.3232 -1.68342 -2.92078 1.71858 -1.13943 -1.12224 0.506817
44 1 46.5773 19.3791 15.1714 -2.34247 1.20486 0.727417 -0.23689 0.213555 0.200126
45 1 23.144 33.8549 53.3561 -0.50122 0.764387 0.662981 0.585452 -0.386295 -0.0283461
46 1 37.6562 40.1038 -1.02257 2.88376 0.897386 -3.28439 -0.415329 -0.480925 0.263673
47 1 46.1256 10.8946 14.8271 3.29213 -0.407273 -1.82406 -0.0973364 0.382686 0.415825
48 2 12.3099 16.4943 19.3955 0.931772 1.03297 -1.07842 0.0417 0.535123 -0.374066
49 1 7.90726 30.4062 1.01302 1.81829 0.51099 -1.67038 -0.164309 0.858662 0.255219
50 1 34.4671 4.57859 14.4388 -5.66319 3.21157 2.01743 0.582601 -0.20914 -0.520899
51 1 12.3238 32.452 53.0192 -0.861182 1.57157 -1.63375 -0.282116 -0.311769 0.0647987
52 2 30.4194 29.4366 34.8497 0.914563 0.719157 3.84088 -0.11609 0.732243 -0.291656
53 1 35.9968 37.0958 11.3025 0.692161 -0.929288 1.33005 0.0285291 0.765355 -0.373387
54 1 34.702 1.48003 3.94022 -0.326794 1.34852 -1.2363 0.419213 0.405437 0.124271
55 1 33.9431 -1.62929 16.8905 0.52022 0.463519 2.3164 0.848298 -0.488761 -0.183206
56 1 26.8141 26.1971 40.0255 -2.85091 -0.345686 -1.35239 0.0593204 -0.158924 0.735956
57 1 -2.73642 50.8182 41.4714 -1.15629 -0.51506 1.37382 -1.14181 -0.111725 -0.201258
58 2 45.3083 22.2213 -1.5264 -1.72999 1.46263 0.897546 -0.568403 -0.13087 -0.199713
59 1 21.2338 -2.31763 36.3013 0.999203 0.898372 -1.87381 0.571393 -0.431538 -0.0635369
60 1 12.7636 6.7667 55.1606 2.91161 2.90169 0.257713 0.573346 -0.187627 -0.148978
61 1 35.8241 31.0553 33.3036 -1.18847 -0.587882 0.626648 0.0497768 0.175408 -0.23852
62 2 17.7306 48.0932 37.7955 -1.8854 0.259189 -1.90722 -0.0264224 0.214865 -0.310365
63 1 41.7797 9.70765 24.2951 -1.5689 -0.417747 0.24909 -0.804269 1.50202 0.149134
64 1 8.83626 5.57517 10.5358 1.4634 -0.962673 1.92136 -0.112989 0.65081 -0.311038
65 1 8.25436 29.5979 51.398 1.65524 4.60696 -2.12254 -0.352071 0.315787 0.0463808
66 1 18.4545 53.5237 46.2848 -1.93278 -1.78477 0.235263 0.293083 0.654016 -0.215047
67 1 21.1167 12.5361 54.3634 0.286033 -0.0604145 0.450923 -0.106648 0.885682 -0.651751
68 1 1.98207 22.0423 8.02203 -0.214208 2.58327 1.04721 -0.0540473 0.305952 -0.414483
69 1 21.7064 48.3109 53.6697 1.59714 -0.244088 0.539453 -0.372237 -0.639653 -0.00457647
70 1 27.7412 49.3984 23.1693 -0.939063 1.75597 1.74258 0.222646 0.104582 -0.65746
71 2 41.4996 26.3615 4.34306 -1.61233 1.48099 -3.8134 -0.432114 0.00474192 0.286359
72 2 47.7923 28.9276 50.4656 0.190379 1.31199 0.00728203 -0.530119 0.45043 0.0268001
73 1 8.41936 11.3448 27.7986 2.07221 1.64999 -1.7154 -0.195486 -0.793708 0.205128
74 1 36.3446 8.29968 -3.18194 -0.0541097 -0.973853 0.955962 0.211395 -0.274285 -0.585846
75 1 36.4099 22.8673 -3.07121 -2.08343 -0.663863 -0.515659 0.289346 -0.167938 -0.029281
76 1 18.6232 5.57413 38.5598 -1.75238 -0.0345359 0.663722 -0.250516 -0.44369 0.411439
77 2 14.9539 19.0286 -2.47099 -2.3257 0.457799 -0.597114 0.0691614 0.201185 0.0873373
78 1 38.7143 -0.602799 49.2679 -0.179961 2.73237 0.168982 0.888941 -0.0347251 -0.461011
79 1 0.956381 39.1143 6.73313 1.40518 0.685641 -2.12451 -0.0272368 -0.0449497 0.216112
80 1 39.5897 39.8337 -2.87914 1.36309 1.92646 2.30077 -0.153986 0.589709 0.0702889
81 1 28.0832 36.2229 -0.222086 0.854598 -0.0168104 -1.56575 -0.509776 0.531952 -0.207291
82 1 48.6809 -0.274027 38.7192 1.44799 1.44239 -0.597657 0.340488 -0.0891297 -0.225042
83 2 52.5363 46.9608 13.9188 0.704652 -3.69855 1.59912 0.679282 0.0503974 -0.324185
84 1 45.3862 7.61013 39.5937 1.14857 -0.536704 1.64116 0.37615 0.167017 -0.356136
85 1 41.0326 50.4125 -0.894282 0.617095 -0.509271 -2.14591 -0.277178 0.106684 0.550736
86 1 39.3646 15.531 7.15485 -1.74022 -0.134408 -0.348898 -0.227066 0.594726 -0.141372
87 1 21.755 3.20658 44.5407 -0.748409 -0.270886 -0.989199 -0.270747 -0.0945925 0.0273896
88 1 -2.63222 13.4149 6.08059 2.30445 -0.482354 0.167016 -0.571728 -0.607379 -0.0170667
89 1 13.326 49.9132 33.7317 -0.762145 -1.2788 1.38827 -0.549287 -0.785261 -0.215333
90 1 45.4863 48.2364 32.307 -0.382664 -1.53986 -2.51821 0.297338 0.605252 -0.227698
91 1 21.0485 29.8833 4.3013 4.63389 -1.2261 0.284975 -0.154639 0.301845 0.771612
92 1 55.7747 -0.377031 40.138 4.06118 -0.942233 0.0968081 -0.315721 0.0645282 -0.273233
93 2 19.815 47.457 33.0887 0.89355 -1.21083 -0.303487 0.109054 -0.115507 0.183442
94 2 4.89382 47.5735 30.2224 0.846376 0.621106 -0.894665 -0.177695 -0.538515 0.0176209
95 1 52.0056 51.4676 29.0455 -0.036147 0.729886 0.889886 -0.573812 0.00707633 -0.386807
96 1 43.2398 -3.31439 37.9743 2.33786 1.80092 0.877369 0.106194 0.452358 0.440528
97 1 56.1023 28.0967 20.8244 2.24894 -0.428352 -0.3039 -0.286638 -0.279882 -0.471
98 1 11.3138 20.9846 15.958 -2.98749 -3.27354 -0.561514 -0.317672 -0.495029 0.246748
99 1 8.64818 33.874 26.8649 -0.352098 -1.3979 -1.11859 0.593174 0.288171 0.182925
100 2 54.7881 54.6905 11.8724 -0.484692 2.50556 -1.31261 0.303479 0.336585 0.514329
101 2 6.28439 11.0473 15.4651 0.0102517 1.55885 -0.0963438 -0.164384 0.342957 0.365411
102 1 43.1102 34.7716 54.0604 -1.96217 1.04299 -1.40692 -0.149139 -0.0838646 -0.547537
103 1 7.37731 52.1017 5.1618 1.69192 -0.21983 0.608011 0.656556 0.516931 0.336066
104 1 30.5166 40.5228 37.0846 1.27279 -0.49823 -2.79866 0.0968041 -0.133029 -0.133862
105 1 9.44737 41.0354 45.5824 -2.18362 -1.46564 1.4802 0.172061 -0.64563 -0.120557
106 1 7.62842 26.225 4.73671 -0.455486 1.1409 -1.37808 0.067158 0.164107 -0.65537
107 1 26.1175 7.50272 24.9899 -1.10856 1.15541 -3.54915 0.0533452 0.454257 -0.0837691
108 2 0.677439 33.5494 40.0256 2.29375 0.441202 -4.37887 0.528386 -0.100644 -0.253013
109 2 53.4457 -1.05497 28.7443 0.849389 -0.309323 -0.711956 -0.0725591 0.371352 0.330369
110 2 32.7809 21.7467 7.3522 -1.23789 -2.25 -1.17729 0.146122 -0.881348 0.150202
111 1 42.426 44.0791 24.6636 -2.69509 -1.81361 2.88566 0.752443 0.191892 0.292418
112 1 17.5019 10.3965 40.564 3.25877 1.99471 1.88094 0.293293 -0.364476 -0.0192339
113 1 4.61038 56.1697 44.1939 1.74097 0.726331 -1.0221 -0.45603 0.4825 -0.017293
114 1 0.962953 51.8034 34.7226 2.63804 1.08424 -1.1679 0.773439 -0.643663 -0.468803
115 2 53.6015 9.26728 43.8162 -1.53483 0.749105 -1.79925 0.186762 0.746918 0.256547
116 1 11.8444 36.1158 34.1729 1.90806 -2.19687 0.201788 -0.459212 -0.265711 -0.538003
117 1 33.3891 29.5267 0.484114 -1.33259 3.00206 2.39368 0.448967 -0.257478 0.034582
118 1 35.9406 -2.68041 43.3845 -0.87738 2.3702 -1.54183 0.121506 0.31139 -0.192692
119 1 -0.225413 49.088 38.2617 3.33399 -1.03393 0.941777 0.193538 0.227712 0.836786
120 1 49.7773 1.60148 -2.49204 -3.06969 0.103103 -1.18347 -0.115919 -0.117012 -0.524751
121 1 47.4968 13.4891 34.2008 -2.146 -0.433563 1.9058 0.383635 0.332069 0.476992
122 1 18.8384 22.5542 32.39 0.741996 -3.51786 0.794521 0.472043 -0.0441232 -0.0490314
123 1 25.8812 25.7896 22.887 -1.0352 -0.664641 -1.1133 0.357185 -0.279955 0.0270182
124 1 10.3724 54.1428 25.9441 3.72302 2.01683 -2.81859 -0.393781 -0.543835 0.0486734
125 2 7.61072 27.7746 46.6441 0.058051 0.486945 -1.39264 -0.220165 -0.385464 0.270511
126 2 32.2296 22.6833 34.5002 1.82665 1.04655 0.424675 -0.0159767 -0.472601 -0.208602
127 1 22.919 21.6963 34.9466 -2.78395 -1.96789 -1.8524 -0.688587 0.143326 0.490149
128 2 54.3305 40.076 7.14394 0.81918 0.216639 -1.58024 -1.34233 -0.00862262 0.0807031
129 1 32.0502 55.4506 43.9943 -0.818939 -0.880524 1.84497 0.319141 -0.454983 -0.442627
130 2 11.1863 55.3999 40.9126 0.105769 -1.42083 -1.09716 -0.170365 -0.182918 -0.390361
131 1 11.6439 23.8819 -2.05282 -2.66904 3.14142 -1.04587 0.229773 0.46553 0.195693
132 1 22.3407 36.9563 55.2601 -2.91363 -0.0323293 0.535591 -0.118735 -0.247721 0.707091
133 2 3.8276 24.8659 42.185 0.480077 2.46661 -1.54235 -0.116838 -0.252553 0.257976
134 1 18.6276 39.0382 24.5015 -1.18493 2.10063 -0.684181 0.146553 -0.193176 0.489801
135 2 18.6804 3.59373 54.1295 0.755522 -2.32065 -0.0840134 -0.623424 0.607155 -0.194311
136 1 53.3613 49.8352 27.8555 1.01656 4.28059 -0.0995613 -0.140949 0.457416 -0.589989
137 2 34.4587 50.0729 20.513 -0.964359 0.443253 0.988046 -0.337339 -0.344581 -0.139346
138 1 24.108 22.8651 39.8842 -1.86159 -0.437795 0.0295519 0.924371 -0.132876 -0.229133
139 1 -0.845475 32.9024 33.8549 2.34432 -0.38262 2.03865 -0.19455 -0.331017 -0.0554317
140 1 53.564 42.2671 37.9386 0.491782 0.146855 -1.64219 -0.844349 -0.212244 0.0351798
141 1 20.9032 -0.66047 27.0245 1.19951 -0.310947 -1.77715 0.382353 0.36175 -0.254045
142 1 14.7901 5.25165 41.1531 0.641407 1.12721 2.54457 0.601817 -0.0015704 0.102704
143 1 15.1651 22.5161 29.6404 0.612295 3.86057 0.0769867 0.213114 0.355751 -0.372583
144 1 26.7029 51.3595 38.0549 -2.47833 -1.24307 0.988236 -0.361812 0.241117 -0.459317
145 2 26.1195 -0.0366303 5.02337 0.118723 -1.86463 0.0902757 0.591844 0.401183 0.188229
146 2 55.4068 36.0664 26.2057 -0.938129 0.823938 -1.50191 -0.0501021 -0.24338 0.0611305
147 2 44.6422 53.1425 31.9502 0.402693 -1.11258 -0.933826 0.564908 0.134369 -0.220833
148 1 16.5915 14.7313 54.1377 0.00427883 1.39309 -4.62544 -0.093834 -0.203414 0.428723
149 1 -1.07679 32.0248 6.91813 -1.24887 0.147086 -1.0954 -0.0997617 -0.672058 0.0744155
150 2 24.6181 29.7739 12.2324 3.55984 0.764111 3.86997 0.0180691 -0.27929 0.258115
151 1 11.8526 5.51295 19.5321 -1.5166 3.87698 -0.945219 -0.481483 -0.660899 0.0415056
152 2 42.7328 34.9909 13.5529 0.407491 2.08172 2.88367 0.845213 -0.0160032 0.0669807
153 1 14.1357 36.5702 37.8263 -0.201822 -1.44049 -0.166127 -0.312235 -0.0507151 0.0130564
154 2 20.7769 10.6394 18.9368 -0.0489297 -0.36519 -1.83185 -0.372445 -0.0944225 0.118481
155 1 54.795 0.927721 12.9057 -1.87605 2.07946 -0.117393 0.0395432 -0.13041 -0.0592735
156 1 55.7466 31.899 3.49116 1.99696 -0.40584 -1.41285 0.535855 -0.20609 0.0724788
157 1 42.8579 53.5044 29.6155 -3.1983 -0.52677 -2.37674 0.389675 0.288861 0.183204
158 1 18.08 32.3691 25.9977 -1.41108 -1.53011 -0.926039 -0.670372 -0.504098 0.724561
159 1 40.0886 22.8224 47.373 -4.16011 0.00471254 -2.10088 0.0268736 0.0723109 -0.382893
160 1 45.0032 29.5723 45.7635 -3.62595 -3.66321 0.0816327 0.118466 -0.17981 -0.229267
161 1 37.4205 39.9198 23.7772 4.07163 2.80591 -0.942384 0.499089 0.302588 -0.990161
162 1 48.1638 51.9104 42.2371 0.796241 -0.683624 1.0141 0.325754 -0.388819 -0.143714
163 1 38.9794 9.42994 -3.21818 -0.945338 -0.718194 -1.49657 -0.352834 -0.302023 0.124576
164 1 37.7937 28.0077 25.2548 1.01807 3.3873 0.231417 0.153313 0.0691931 0.202683
165 1 6.68173 11.0431 10.7197 1.12579 -0.734939 -0.0702388 0.144877 0.175362 -0.244033
166 1 16.5809 42.2669 21.4949 2.19287 0.133561 -0.679215 -0.508682 -0.146186 0.0795298
167 1 55.3604 49.7249 37.1859 3.55513 -0.393036 -0.689197 0.414312 -0.0330194 -0.00441193
168 1 18.4227 44.5397 8.57182 3.14331 0.782809 3.02721 0.469957 -0.899657 0.195518
169 1 42.0175 41.4206 38.3154 1.58647 1.48481 0.0268715 0.167594 -0.291568 0.373749
170 1 12.6376 26.2344 46.1762 -3.72439 -0.0365047 -0.61988 -0.276454 -0.159825 -0.564827
171 2 30.0131 25.5316 32.2699 -2.10286 -0.241697 0.968139 0.0878381 0.179911 -0.187979
172 1 -3.57592 5.20781 34.3484 0.170383 0.366236 0.407108 -0.331376 0.0346328 -0.629193
173 1 52.8942 -1.35718 -2.3988 -0.918469 -3.9213 -1.63184 0.196741 0.202197 0.531738
174 2 22.2026 2.31043 0.612644 -1.3435 0.614899 1.50081 1.01349 -0.293365 0.0493777
175 2 13.5484 30.4688 38.2053 1.26886 -2.12513 -0.213095 0.59419 0.196349 -0.131773
176 1 24.3467 25.7897 2.54277 1.66885 -0.85715 -1.31078 1.07299 -0.101123 1.31262
177 1 47.5516 13.2025 -0.62605 1.08351 -0.55565 -1.80978 -0.540118 0.00879429 -0.272492
178 2 8.70209 41.6369 39.6288 -1.25657 -1.23169 -1.22767 -0.105201 0.0306333 0.280213
179 1 8.78553 33.6268 35.9435 2.18592 -3.23416 2.27782 0.0256879 -0.25072 -0.245606
180 1 10.5952 5.30799 45.2106 -2.81188 0.286283 -1.56578 -0.839076 0.622905 -0.431456
181 2 38.8517 -3.3562 1.48033 -3.33748 0.120828 -0.722492 0.108139 0.133781 0.242353
182 1 12.0647 28.9234 29.7619 -1.98841 -4.52558 -1.41034 -0.592375 0.232376 -0.334886
183 2 0.872351 49.5961 53.6896 -0.9741 2.87759 -0.935164 -0.478518 -0.0346765 -0.515172
184 2 35.7087 5.51034 17.1187 0.740309 3.33803 0.32214 0.335458 0.149719 -0.444231
185 1 43.0364 -0.444443 -3.43751 -2.51885 0.677431 -0.189905 0.638128 0.131021 -0.602576
186 1 53.6415 46.5234 20.4559 1.67581 -2.24347 -0.527207 0.118758 0.284745 0.214321
187 1 33.9431 49.8549 50.6642 -0.941154 1.26957 0.765329 -0.0244607 0.487167 -0.542046
188 2 5.47524 31.915 2.00625 -1.29783 0.646011 -1.0555 -0.548206 -0.850391 -0.348783
189 1 14.3345 47.6875 50.6344 2.18512 1.00552 2.76577 -0.727538 0.166083 0.978345
190 2 -2.94868 0.479007 49.5815 0.794585 2.17614 0.994351 -0.191323 -0.264569 0.710192
191 1 26.4321 9.78854 46.1427 -0.452843 0.534451 0.390455 0.498035 0.492715 -0.253422
192 2 24.4203 49.3621 38.8945 -1.0361 0.794661 -0.455488 0.341608 -0.00741822 -0.0925903
193 1 30.8901 46.7632 1.7804 1.77975 -0.113468 0.272939 0.220032 0.496201 -0.253936
194 2 43.3152 44.6123 47.7908 0.703299 0.355951 2.70474 -0.206352 -0.100298 0.626263
195 2 18.7289 42.2281 32.267 -1.89788 -0.486357 -1.03164 0.0658315 -0.270681 -0.467332
196 1 26.8692 0.467701 7.49203 1.07367 -1.18046 -1.20296 -0.123156 0.0497574 0.0316496
197 1 1.93046 24.6244 30.7122 -0.1753 -2.36055 1.70143 0.177315 0.203232 -0.433266
198 1 34.0606 15.201 41.9233 -2.91377 -1.72366 2.13335 0.211211 0.170277 -0.155685
199 1 23.6622 -1.44666 12.8129 1.80898 -0.444653 0.799467 0.569614 0.0300784 -0.245655
200 1 38.6838 16.8356 -0.26189 0.0205414 -2.35459 -0.969986 -0.117936 0.922451 0.866124
201 1 55.1482 5.12849 10.5727 0.453874 -1.33496 -1.11111 0.147588 0.0175561 -0.272994
202 1 46.8206 -0.84461 37.0334 -0.73114 1.56971 -1.47446 -0.00404191 0.00390427 -0.0965804
203 1 21.5021 0.165335 36.8912 1.00921 -4.33186 -1.69376 -0.613103 0.135069 -0.288482
204 1 17.6115 38.3254 40.2229 -4.10148 -1.38529 2.11694 0.272836 0.335397 -0.0618963
205 2 13.813 2.12389 54.0652 0.877189 0.237391 -0.959003 -0.328847 -0.0178613 0.00660265
206 1 48.3994 25.7484 27.2621 -3.55746 -0.0630849 -3.40585 0.669623 -0.0533314 -0.377623
207 2 0.504738 52.7161 6.84874 -1.41184 0.212598 -0.510994 -0.496511 0.378948 -0.388725
208 1 27.6624 1.28452 -3.36048 -0.828377 -0.792892 -2.81423 -0.402806 -0.105473 -0.296759
209 2 28.429 9.63019 -2.83453 1.58833 0.474146 -2.02839 0.225444 0.424123 -0.334033
210 2 1.13872 28.7859 32.0069 -0.926033 -1.93112 -2.13839 0.0583067 -0.429182 0.356262
211 1 36.1707 17.2001 28.2278 2.55794 -2.45833 -2.77037 -0.331434 0.1392 0.168587
212 1 3.31815 23.0247 37.5306 -0.834654 -1.45611 0.209327 -0.4765 0.181218 0.410069
213 1 4.97491 16.6905 0.61215 6.21342 -0.987091 4.14115 0.426723 0.00526605 0.677415
214 1 51.6155 12.4955 19.2513 -1.02231 -2.02759 1.23439 -0.307785 -0.147497 -0.433149
215 2 4.57046 19.3021 19.6833 -2.11371 -2.77014 1.17505 0.116276 0.0358299 -0.111628
216 2 48.7289 39.7321 33.399 0.708543 1.45159 0.701329 -1.10532 -0.641627 -0.534425
217 1 36.9923 13.8513 33.197 1.2448 2.02772 1.60778 0.648018 -0.253577 0.629389
218 2 36.3539 11.9093 44.4238 -3.64306 0.809463 0.553024 0.598446 0.0732552 0.475835
219 2 32.5218 50.1482 25.1157 -0.252462 -1.37024 -2.42201 -0.261867 0.722999 -0.342486
220 1 41.4034 5.27337 41.2138 2.2429 -0.304873 -3.63609 -0.0170696 -0.742082 -0.00528825
221 2 51.5645 29.307 53.99 1.67841 0.241917 1.30344 -0.800331 0.267704 -0.0641655
222 1 43.8638 13.585 44.3939 -3.85496 -0.779779 -0.316649 -0.456326 -0.331541 0.293467
223 2 18.7978 8.06295 52.5564 2.5317 0.52021 0.2982 -0.165014 0.291245 -0.773903
224 1 2.26242 17.6222 18.8653 0.869077 -0.226961 1.88344 0.2166 0.167807 0.0848817
225 1 28.6512 50.5943 27.7406 -4.0485 1.05484 1.11393 0.653852 0.286957 0.293287
226 1 26.1346 48.9753 37.0816 -3.03926 0.193434 -1.91975 0.505188 0.023917 -0.218479
227 1 49.9996 30.1843 28.9722 -1.69742 -5.50685 0.904067 0.91979 0.150502 -0.397986
228 1 6.23517 2.43586 28.2889 2.48094 1.46186 0.326928 -0.0222118 0.28187 0.0980577
229 1 1.10568 50.8351 20.627 1.76284 1.90957 1.55061 0.0905111 -0.114994 1.30843
230 1 4.1474 6.42336 -2.5921 3.43463 1.31675 1.68983 0.663547 0.514013 -0.28653
231 1 45.9875 10.7432 28.1766 2.30725 -3.86377 -0.011019 0.471827 0.0779807 -0.21864
232 2 10.2347 2.52102 45.0778 -0.016002 -2.58433 -1.3529 -0.617579 -0.0514541 -0.586452
233 2 16.4031 39.8509 45.8 -0.477105 -2.78617 0.413356 -0.466845 -0.180011 -0.548422
234 1 38.3636 31.4881 8.73521 1.94746 -0.0247994 -1.30446 0.835938 -0.0350474 0.42421
235 1 24.5083 45.8433 23.571 1.21608 2.34043 -0.39901 0.252499 -0.185462 0.127701
236 1 14.8632 48.1094 8.4066 -0.282932 -1.68861 -3.12513 0.291927 -0.623592 -0.71472
237 1 52.2194 -0.135487 46.9953 0.0756903 -1.76992 1.69572 -0.145213 0.312756 0.00856352
238 1 -2.7527 12.7952 8.55598 -0.263856 -1.33346 1.7299 -0.269843 -0.665027 0.124917
239 2 7.63867 49.4395 26.3132 -1.55591 0.511006 -1.69468 0.0789897 -0.413055 0.196446
240 1 18.1615 40.1594 36.3193 0.840727 -1.4543 -1.88488 -0.0745569 0.505618 0.211191
241 2 35.4761 -2.06294 25.2789 -0.864429 1.71061 -0.823223 0.361513 0.11275 -0.373056
242 2 34.8924 10.5011 42.1336 1.5225 1.93912 -0.409317 -0.00270245 0.246164 -0.496133
243 1 38.1529 26.3528 27.3588 0.870448 -0.313691 -1.10295 0.330027 0.620022 -0.0936717
244 2 27.3339 -2.8798 23.7446 2.07547 0.0638655 0.533939 0.348097 0.0164072 0.807516
245 1 55.4672 55.4003 42.0593 -1.28069 -0.311434 -1.50563 -0.277139 -0.26341 -0.250307
246 2 24.5695 -2.9295 41.6126 -3.50997 -0.0768599 -0.652964 0.70942 0.480451 -0.402755
247 1 46.848 44.749 24.4945 -1.36463 -0.736863 0.844543 -0.128119 -0.114227 -0.343097
248 2 40.7242 -2.6522 24.5283 3.30133 -2.39266 -2.54642 -0.0632814 0.339008 -0.505336
249 1 42.2828 31.4025 3.29495 0.98613 -1.12373 -2.1894 -0.504925 -0.570467 -0.124096
250 2 25.4589 39.7155 50.0857 -0.959657 -1.05256 -0.159265 0.418389 0.321021 -0.083332
251 1 4.17197 1.01853 -1.68072 -1.24172 4.17142 2.04266 -0.356386 0.18836 -0.229709
252 2 23.2957 41.1364 4.30634 0.825389 2.85148 1.95776 -0.397343 -0.152183 -0.300608
253 1 45.2763 37.4722 18.1504 3.04383 2.24795 -0.0387906 -0.0666605 -0.27983 -0.870682
254 1 55.1668 13.8609 34.6563 -0.415175 5.49074 -1.28464 -0.113923 0.288788 -0.0139623
255 1 35.6368 -3.67215 50.4931 -0.970793 0.660384 -1.57655 -0.268698 0.353489 -0.693754
256 1 32.3588 16.376 6.75179 -1.35807 -3.23302 1.01254 -0.920491 -0.694577 0.0942696
257 2 15.5651 10.6453 6.79526 2.23809 0.578272 0.662121 0.0144101 0.210091 0.366781
258 1 -2.04703 42.5033 14.6319 2.63561 3.11834 -3.71062 0.327533 -0.229073 -0.00613315
259 2 46.1447 50.4914 33.4394 -0.541478 -0.301151 1.22234 0.342064 -0.0439406 -0.181692
260 1 -1.17692 10.9449 45.5303 -0.890219 2.30356 -0.912216 0.228643 -0.348509 0.95413
261 1 52.9893 52.7364 39.2843 1.11977 -3.62934 0.759742 -0.170991 0.338571 0.0569894
262 2 22.9313 1.38887 47.0268 0.971322 -4.01091 -0.942897 0.307595 -0.052387 0.0171966
263 1 22.5972 20.5361 24.8326 -0.628484 2.29146 1.75973 0.380278 0.595329 0.223217
264 2 49.4296 34.7024 38.4453 -1.9433 -2.91141 1.06453 -0.427648 -0.374847 0.311747
265 1 13.7917 29.8179 43.4911 1.44245 4.96059 0.533427 -1.07626 -0.251279 -0.288979
266 1 12.7185 2.98756 36.6035 1.825 -4.4919 3.02677 -0.176955 -0.702477 0.578896
267 1 52.9231 35.6843 54.3004 1.13756 3.89438 -1.6098 -0.574064 -0.635234 -0.365014
268 1 29.7283 32.3916 34.5348 -1.05392 5.87976 0.911707 -0.157175 -0.100163 -0.669513
269 1 46.2416 13.3611 44.9414 1.86583 0.263229 1.08358 0.101562 0.259045 0.0737278
270 1 46.9452 26.9776 28.801 1.20793 -3.37504 1.01496 -0.960791 -0.0754456 0.0259964
271 1 9.57198 29.2331 45.365 2.61699 -1.28503 1.32863 -0.179995 0.278622 -0.696526
272 1 27.1872 38.3736 13.1336 0.950726 0.757907 -0.41364 0.0238829 -0.168352 -0.0678257
273 1 19.8985 30.0565 52.4063 -0.995384 1.95514 -1.52293 -0.834447 0.554119 0.394443
274 1 14.962 -0.237156 53.1199 -2.28037 -2.4071 0.752428 0.0878503 0.0737714 -0.221296
275 1 26.092 10.008 53.4103 0.484272 0.929402 -1.69423 -0.645803 0.202238 0.278943
276 1 2.27693 39.3411 37.4115 0.343158 2.58143 0.0146259 0.0963799 -0.378393 0.873037
277 1 16.89 51.5334 33.8649 1.98354 -1.0317 1.37016 0.312438 -0.403398 -0.122161
278 1 6.6218 -0.470352 45.2754 0.480192 1.87742 -3.38971 0.401276 -0.395116 0.137569
279 1 38.5177 52.3763 14.174 -1.38434 -3.89983 1.41005 0.395641 -0.575953 -0.423385
280 2 25.8233 9.21733 18.6699 3.17481 2.0527 0.247264 0.0318186 0.2956 -0.614755
281 2 41.4005 23.8959 51.6926 0.637114 0.0527932 -0.663897 -0.177542 0.529869 -0.384806
282 2 17.0938 42.7948 38.2303 -0.607831 -0.650778 -0.152379 0.624284 -0.559267 0.353615
283 2 44.7397 -1.43228 10.8637 0.805976 -0.0588788 1.30915 -0.234067 -0.544461 -0.698662
284 2 18.809 52.0784 19.8177 -2.27666 -0.147573 -2.06598 -0.0975684 0.12851 -0.386896
285 1 48.1597 6.01186 36.2906 -0.317312 2.14072 2.23179 -0.298723 0.215799 -0.347791
286 1 20.1017 56.0799 13.6597 0.691516 1.32707 1.3963 -0.240787 -0.465838 0.567123
287 1 45.231 47.8581 22.2569 -3.06848 -0.329418 -1.85973 -0.468375 0.523054 -0.396294
288 1 13.4996 43.4548 44.7889 0.953841 -3.20903 0.282419 -0.38069 -0.771919 0.222812
289 1 2.50332 8.16687 29.4152 -0.746402 0.217034 -1.20812 -0.583729 0.190706 -0.0356166
290 2 -1.05973 45.7454 3.01978 -3.0566 -2.87913 1.08509 0.136841 0.133986 -0.226694
291 2 17.1415 36.6987 23.9197 2.35459 -0.998779 0.526383 0.113157 -0.395939 -0.477421
292 2 13.6246 -1.69966 22.8028 -0.0061158 0.216564 2.35561 0.841272 0.746854 0.339538
293 1 3.57347 51.0674 3.51791 -1.79327 -0.197117 0.301157 -0.0774242 -0.867016 -0.343543
294 1 34.4774 44.6381 6.65862 0.492024 -0.265798 -0.875931 -0.0136242 0.419027 -0.204322
295 1 13.4813 17.7875 12.1793 1.44126 -3.64985 -1.16065 0.161775 -0.0400916 -0.0405081
296 2 23.2859 44.8722 8.45424 1.57321 1.80934 0.407025 -0.352255 0.348225 0.306616
297 1 29.7985 18.6862 49.6969 -0.0944154 -1.85675 3.28011 0.446071 -0.636082 -0.498334
298 1 38.3037 13.5954 45.4504 -0.498278 -1.14699 2.08212 -0.216597 0.050531 0.289412
299 2 9.74728 9.74737 22.2736 0.915268 2.08466 0.516233 0.0931784 -0.081341 -0.235746
300 2 52.3348 37.8192 6.21539 1.73594 -1.78066 -0.653823 -0.137617 0.144545 0.633497
301 2 0.925548 4.85151 -0.976856 1.04837 -1.64755 1.61951 -0.428573 0.665667 0.652918
302 2 1.13645 47.5 49.2413 -0.495318 0.129883 -1.53649 0.00601719 0.671505 -0.0903771
303 2 39.3967 3.60386 28.6131 1.47421 2.18273 -1.66969 0.0349997 -0.740574 -0.396426
304 2 55.7468 49.1513 34.5013 1.48501 -0.643031 0.281559 0.920757 -0.822855 0.0849249
305 2 23.5756 -0.108457 -1.10949 -1.93942 -1.80175 0.942816 0.164525 -0.570499 0.0589802
306 1 25.6756 41.0311 22.1386 1.08193 1.09712 -2.43365 0.58508 -0.442192 -0.159809
307 2 35.1337 6.94553 39.4888 -2.03062 -1.60261 -0.833074 0.384469 -0.211314 -0.306577
308 2 3.66016 53.0916 7.08901 -1.07866 -2.79648 -2.48132 0.0748166 -0.252427 0.418165
309 2 13.2084 32.6846 9.85733 -2.20117 -0.440741 0.755038 -0.0334448 -0.285969 0.145594
310 1 40.1189 5.78067 8.19509 -0.163933 0.515387 0.994498 0.0990003 -0.474668 0.10868
311 2 37.9503 43.47 20.0481 -0.240796 -1.00994 -3.89813 0.394163 -0.0835663 -0.382867
312 1 37.8431 6.44137 53.1535 -0.470835 -0.414516 -2.27336 -0.238325 -0.213613 0.186107
313 1 21.6396 5.16493 49.3611 2.7716 -3.96803 1.31804 -0.146212 -0.247587 0.169414
314 2 54.0878 23.7745 19.4224 -1.29275 2.82626 1.31905 0.522835 -0.0717961 0.311345
315 2 19.6792 17.5175 49.0894 2.38802 -2.48491 -2.11982 -0.443189 -0.590294 -0.44454
316 1 -2.2687 55.3902 10.0483 -0.858286 -0.535516 -0.00813786 -0.367951 0.00269373 0.285478
317 1 9.76183 21.3153 45.7176 0.0120199 -2.97867 3.34676 -0.351026 -0.512265 0.0777009
318 1 -3.47674 -2.21123 41.8765 -0.427984 1.12467 -1.29309 0.345478 -0.00403521 -0.07547
319 1 13.1858 52.6573 30.6562 3.80765 -4.96368 -3.37585 0.437069 -0.120656 -0.869295
320 1 16.2224 45.4282 29.1245 1.41698 1.45591 -0.470016 -0.0777322 -0.344196 0.110696
321 1 16.0186 15.3144 20.2534 4.20557 -0.672301 2.77839 -0.0520073 0.345976 -0.925001
322 1 6.26223 47.1044 18.1604 -1.95972 -1.15925 -1.72329 0.0638822 0.105474 -0.0521517
323 1 1.53326 41.2633 42.4461 0.0856084 -0.0272589 0.209805 0.45137 -0.38884 0.182883
324 2 12.4342 28.8424 16.3102 -1.48096 -0.980978 1.8189 -0.391818 0.631173 0.133715
325 2 26.0739 46.4217 7.8183 0.963614 0.305258 -1.02407 0.0230383 -0.206923 0.361228
326 1 43.6395 33.9544 15.9924 2.84881 -1.70089 0.43131 0.164762 0.42438 -0.620841
327 2 46.3118 38.4342 11.3954 1.3949 -0.0286683 3.92817 0.824394 -0.424121 -0.298193
328 1 16.8347 12.4737 23.7203 -1.48419 0.390474 0.71605 -0.484559 0.0891945 -0.010266
329 1 31.8462 4.74396 20.198 2.64078 -1.54002 -2.20268 0.54917 0.411999 0.0376381
330 2 20.1265 24.7545 15.0948 -1.27571 -3.26544 -0.624106 -0.0871576 -0.135413 -0.413136
331 1 32.4447 -2.34181 2.08596 -1.91235 -1.62541 -0.881003 -0.0561382 0.081706 0.326767
332 2 36.2556 54.7218 24.6968 -3.69135 1.09768 1.34315 0.0274504 -0.345631 0.195029
333 1 27.5012 52.7598 5.43689 3.74531 -1.64188 -1.81917 0.399541 0.00692221 0.192001
334 1 38.9553 51.5767 44.5386 -0.0172487 -2.22522 -2.36098 0.0666508 -0.114961 0.105861
335 1 49.3538 52.6186 -1.59303 3.92761 -0.0880747 2.51286 -0.547425 0.0567023 -0.0812804
336 1 45.2813 19.5317 13.0324 1.08186 -0.0484406 1.94427 -0.394706 -0.156385 0.158431
337 1 -3.0134 -2.38698 55.9463 -2.21548 4.42961 -2.24757 0.299083 -0.547312 0.42198
338 1 18.4928 48.5535 47.5842 -0.735377 0.739529 -2.70994 -0.0949483 -0.124275 0.0415306
339 1 19.5872 18.5106 8.55694 4.27703 0.0675245 -3.23073 -0.0497206 -0.253847 -0.289307
340 2 0.323185 37.7969 16.7837 1.99213 1.23449 1.41002 0.460515 -0.394558 0.231299
341 1 49.5908 48.2159 55.3638 -2.37384 1.53605 1.27718 0.404912 -0.115395 -0.596957
342 1 14.2036 48.9117 40.5564 -5.80185 -0.288957 -0.21743 -0.233427 0.510155 0.326606
343 1 23.0088 28.6091 49.4518 0.714886 0.32886 -1.39784 -0.448283 -0.0300936 0.145194
344 2 31.2682 8.16988 31.0063 2.87659 -0.39294 -0.42436 -0.322447 -0.474197 -0.0341589
345 1 20.1427 9.38312 16.6274 -0.848303 -1.62898 -2.05439 -0.0396477 0.0848726 0.0468801