ITEM: TIMESTEP
22000007
ITEM: NUMBER OF ATOMS
13500
ITEM: BOX BOUNDS pp pp pp
-3.69581 56.1958
-3.69581 56.1958
-3.69581 56.1958
ITEM: ATOMS id type x y z vx vy vz fx fy fz
1 1 26.0726 54.8845 24.3966 2.87134 -2.79011 -4.32636 -0.260114 -0.41318 -0.100916
2 2 42.5047 36.7672 37.0374 0.759107 -1.10945 -2.37747 0.102498 -0.171645 -0.10447
3 2 44.3735 24.9273 17.8788 0.105036 1.8588 -2.67688 0.0759622 0.702962 0.0762674
4 1 53.9079 13.2756 54.6936 -0.17977 1.02073 -0.237144 0.220876 0.483244 -0.19791
5 1 30.7691 28.5912 25.8998 -1.07498 -1.85371 0.0267456 -0.19519 -0.447721 0.176973
6 2 38.5104 42.2301 52.6808 1.45225 -0.698202 0.868004 -0.218546 0.181202 0.238234
7 1 43.8891 29.5012 16.3239 2.45888 0.412147 1.50503 0.172927 0.937278 -0.0983185
8 1 1.93835 -0.628713 42.7513 5.23906 -2.08012 0.266683 0.154435 0.46372 -0.3288
9 1 51.4033 28.6334 17.3227 -1.54392 -1.9013 0.690913 0.16102 -0.461465 0.17056
10 1 33.3739 53.1364 14.5829 -1.38207 0.61631 -2.04781 0.0359811 -0.139873 -0.290019
11 2 33.0152 43.5461 55.203 -1.88564 1.47691 -1.14042 -0.0590061 -0.443364 -0.0213039
12 1 1.63897 47.9516 -1.78551 -0.633145 -0.287546 1.48539 -0.0546519 -0.0198686 0.0365222
13 1 30.1564 6.17632 3.0021 -1.62602 -0.95691 -1.73408 -0.0198446 -0.0571589 0.0848452
14 1 13.2696 32.4253 36.4236 -1.62801 2.01292 2.70482 0.0724712 0.23721 0.164912
15 1 35.8951 3.18638 48.1241 0.874573 -0.577696 -1.51491 0.324349 0.241592 -0.242924
16 2 45.4848 21.3786 21.7571 2.38697 -4.44386 1.29441 0.256271 0.116405 -0.339312
17 1 7.65963 1.8539 43.4484 0.155253 -2.54787 -3.11827 0.190013 -0.360233 -0.23952
18 1 52.8038 29.9026 42.7435 2.61749 -0.652388 1.95478 0.190091 -0.358218 -0.0311833
19 1 42.8512 15.7142 45.074 -2.48653 0.729992 0.78662 0.049594 0.625994 -0.59484
20 1 20.0878 9.83921 4.09634 0.625017 -2.59621 0.410189 0.202112 -0.179017 -0.0805419
21 2 49.1845 18.4975 41.4417 -0.786823 2.26257 -1.68361 -0.0897539 0.210004 -0.107235
22 1 54.7466 7.32054 2.0379 1.04406 -1.01763 1.94171 -0.116219 0.412694 -0.302677
23 2 24.1561 1.61452 3.11066 -0.064227 1.61021 -0.408995 0.0571651 0.585336 0.123453
24 2 32.1611 52.0467 54.7829 2.03602 -0.742034 0.923754 0.253169 0.300075 -0.0953337
25 2 46.8241 14.5243 31.5384 -0.842974 -0.901425 0.0656583 0.659976 -0.0256649 0.66503
26 1 -0.43923 27.1773 -1.11573 -0.87273 -1.37913 1.132 0.0187342 0.0157258 0.242433
27 1 43.6847 0.940977 40.2588 -3.78373 -1.3895 -0.570057 -0.0939186 -0.708668 -0.643892
28 1 28.6728 -2.00254 32.5754 -1.91733 1.07076 1.44278 -0.417089 0.173862 0.0114294
29 1 0.354098 33.2885 13.1566 -1.79223 0.188435 -0.520403 -0.327894 0.277993 1.02782
30 1 16.7798 55.7974 0.826028 -2.35024 1.39806 1.30343 0.178969 -0.0898339 -0.423959
31 2 0.029852 54.335 18.2578 1.41232 -0.512503 0.395318 0.152234 -0.256051 -0.308991
32 1 45.729 48.3809 26.8321 0.736234 0.915594 -3.67708 0.0106993 0.271468 -0.243591
33 1 9.41844 20.6625 29.0661 0.633227 1.88708 -0.018392 -0.0938596 0.211064 0.0398388
34 1 44.8385 21.1591 29.8021 2.19797 -2.90287 0.459094 -0.0683722 -0.053215 0.135673
35 2 34.8459 -2.77188 20.4864 1.86515 2.11283 0.470101 0.174765 0.453761 0.164767
36 1 39.1404 36.5132 7.1601 -3.42282 -0.392351 -0.4232 -0.100016 -0.434822 -0.0201706
37 1 -1.18286 3.0784 31.5689 -1.13539 0.669846 0.179975 0.175549 -0.489681 -1.14376
38 2 49.8173 4.45649 49.196 0.0897465 0.466892 1.83295 0.309618 -0.351987 -0.520662
39 2 24.9124 34.6951 51.1887 -1.15011 -3.3342 -2.36994 0.0674536 0.363134 -0.279395
40 2 51.0646 38.1744 40.3801 1.73507 -0.959141 -0.565078 0.45994 0.813424 0.0412062
41 1 8.66039 23.4801 19.9812 -0.566014 -1.72694 2.92403 -0.312944 0.290448 -0.165123
42 1 -2.79563 54.9409 38.4138 0.276337 1.87838 -0.882646 -0.211574 -0.433113 0.252123
43 1 33.4966 3.67247 48.3365 -2.35861 -3.57044 2.01513 -1.08968 -1.0275 0.47631
44 1 46.573 19.3823 15.1716 -2.45605 1.30922 0.840083 -0.14737 0.135125 0.173096
45 1 23.1419 33.8595 53.3658 -0.137458 0.517378 0.62876 0.609766 -0.422892 -0.0810753
46 1 37.6702 40.1104 -1.04247 2.6196 0.611397 -3.08322 -0.441803 -0.455287 0.38267
47 1 46.1438 10.8895 14.8174 3.21492 -0.164988 -1.55881 -0.142293 0.412767 0.449167
48 2 12.31 16.4963 19.3891 0.941128 1.25303 -1.23433 0.00796001 0.511522 -0.368832
49 1 7.90951 30.4104 1.00006 1.69548 1.02672 -1.50876 -0.231065 0.840489 0.268953
50 1 34.4473 4.58549 14.4432 -5.28205 3.06741 1.67907 0.646149 -0.250852 -0.582704
51 1 12.3163 32.4596 53.0198 -1.03223 1.37928 -1.57778 -0.284165 -0.313516 0.112036
52 2 30.424 29.4409 34.867 0.859525 1.02554 3.7023 -0.137743 0.720318 -0.338744
53 1 36.0021 37.0959 11.3035 0.699392 -0.460222 1.09755 -0.00203567 0.773146 -0.384909
54 1 34.7034 1.47941 3.92959 -0.071944 1.57909 -1.16195 0.418482 0.358645 0.115207
55 1 33.9482 -1.63533 16.8971 1.02684 0.162908 2.19538 0.820625 -0.498705 -0.204338
56 1 26.8029 26.1955 40.0246 -2.80231 -0.451394 -0.890022 0.0877491 -0.190011 0.780084
57 1 -2.75001 50.8224 41.4806 -1.84427 -0.584631 1.2305 -1.12757 -0.118138 -0.26327
58 2 45.3059 22.226 -1.53027 -1.94636 1.39054 0.790997 -0.465687 -0.200112 -0.29763
59 1 21.2372 -2.32204 36.2963 1.32592 0.63403 -1.90461 0.507655 -0.434044 -0.0455917
60 1 12.7723 6.77295 55.169 3.22708 2.76271 0.163537 0.477526 -0.256716 -0.160044
61 1 35.8219 31.0544 33.3077 -1.13986 -0.475819 0.467491 0.105498 0.190504 -0.282448
62 2 17.7208 48.1002 37.7907 -1.89582 0.347968 -2.02938 -0.0344904 0.206825 -0.278534
63 1 41.7765 9.70348 24.2958 -2.03409 0.495913 0.343323 -0.730357 1.49416 0.162455
64 1 8.8374 5.5667 10.539 1.37335 -0.569523 1.71637 -0.1763 0.638622 -0.35444
65 1 8.25584 29.6175 51.3961 1.43428 4.76991 -2.08339 -0.367889 0.240009 0.0727867
66 1 18.4452 53.5245 46.2907 -1.72063 -1.36666 0.0786137 0.395376 0.71308 -0.299107
67 1 21.1164 12.5333 54.3718 0.207653 0.468787 0.0652214 -0.150706 0.855517 -0.615781
68 1 1.9748 22.0518 8.02095 -0.24974 2.73533 0.79754 -0.063294 0.205223 -0.403449
69 1 21.7111 48.3149 53.679 1.35976 -0.642124 0.529318 -0.401616 -0.670765 -0.0262881
70 1 27.7381 49.4115 23.1747 -0.798394 1.80425 1.33539 0.236181 0.0617765 -0.675025
71 2 41.4968 26.3675 4.32237 -1.7786 1.46505 -3.64721 -0.364247 -0.0707082 0.475155
72 2 47.7983 28.9339 50.472 -0.0366781 1.48178 -6.83213e-04 -0.541605 0.360983 -0.064357
73 1 8.42272 11.3466 27.7924 1.93346 1.15066 -1.56067 -0.251412 -0.841241 0.295497
74 1 36.3472 8.29075 -3.18653 0.0780223 -1.13782 0.599854 0.223183 -0.268546 -0.581258
75 1 36.4045 22.8635 -3.08097 -1.89561 -0.745679 -0.521101 0.319178 -0.103019 0.0102458
76 1 18.6139 5.56805 38.5662 -1.89495 -0.302471 0.904636 -0.226317 -0.437404 0.384038
77 2 14.9418 19.0287 -2.48081 -2.27251 0.552693 -0.559172 0.16715 0.250753 0.0877933
78 1 38.7179 -0.598952 49.2741 0.34919 2.70215 -0.110585 0.849508 -0.0537797 -0.458085
79 1 0.955338 39.1203 6.71981 1.37815 0.645041 -1.97631 -0.0556013 -0.0851048 0.262353
80 1 39.5985 39.8456 -2.8775 1.25675 2.2702 2.31992 -0.190239 0.549636 0.00243118
81 1 28.0865 36.226 -0.235513 0.539897 0.297932 -1.6804 -0.520627 0.503101 -0.17601
82 1 48.693 -0.275328 38.7198 1.63699 1.36896 -0.738357 0.287705 -0.145839 -0.240637
83 2 52.5465 46.9515 13.9216 0.973742 -3.65756 1.44784 0.596516 0.120171 -0.379991
84 1 45.3963 7.60332 39.6033 1.37709 -0.432354 1.40646 0.381073 0.174109 -0.40935
85 1 41.0386 50.4169 -0.90928 0.442413 -0.428358 -1.79658 -0.294676 0.157347 0.588739
86 1 39.3608 15.5284 7.1483 -1.85679 0.222193 -0.419847 -0.163483 0.578636 -0.0935458
87 1 21.7505 3.19936 44.5416 -0.894584 -0.322973 -0.950548 -0.214567 -0.0774741 0.0952252
88 1 -2.63128 13.4089 6.07596 1.941 -0.853396 0.157752 -0.614145 -0.615614 -0.0125383
89 1 13.3189 49.9133 33.739 -1.08549 -1.72692 1.24252 -0.518311 -0.694298 -0.257798
90 1 45.4902 48.2367 32.2982 -0.193415 -1.14933 -2.62421 0.322688 0.671437 -0.132484
91 1 21.0654 29.8797 4.29763 4.50781 -1.03641 0.74633 -0.239647 0.31655 0.747602
92 1 55.7983 -0.387672 40.1417 3.84081 -0.88798 -0.0700496 -0.391182 0.110359 -0.275257
93 2 19.817 47.4576 33.0894 0.938243 -1.25539 -0.230545 0.107083 -0.102646 0.159286
94 2 4.89146 47.5811 30.2199 0.762519 0.385054 -0.874766 -0.213089 -0.573398 0.0707399
95 1 52.0115 51.4772 29.0494 -0.391313 0.728583 0.669688 -0.59515 -0.00838473 -0.333859
96 1 43.2537 -3.31439 37.9814 2.38908 2.06145 1.13524 0.0728196 0.413378 0.412061
97 1 56.1187 28.0951 20.8212 2.05328 -0.584982 -0.579309 -0.348052 -0.237222 -0.436408
98 1 11.2976 20.9695 15.9533 -3.15358 -3.53491 -0.407736 -0.241429 -0.378448 0.256726
99 1 8.6429 33.8708 26.8608 0.0213604 -1.21769 -0.990739 0.634265 0.298528 0.232502
100 2 54.7939 54.7082 11.8639 -0.344445 2.62633 -1.09053 0.356942 0.249458 0.526243
101 2 6.27906 11.0499 15.4622 -0.0701081 1.69414 0.0522321 -0.214785 0.306485 0.335997
102 1 43.1066 34.7779 54.0614 -2.02702 0.979218 -1.71678 -0.0727511 -0.121012 -0.478495
103 1 7.37992 52.1082 5.15911 2.07852 0.107286 0.801522 0.622767 0.557805 0.302803
104 1 30.5229 40.5244 37.0761 1.32827 -0.574848 -2.85493 0.0917009 -0.121653 -0.0635198
105 1 9.43446 41.0327 45.5932 -2.07072 -1.83852 1.39864 0.189587 -0.586803 -0.141563
106 1 7.62179 26.2297 4.72478 -0.439226 1.23733 -1.76601 -0.016301 0.158768 -0.627696
107 1 26.1131 7.50298 24.9753 -1.06539 1.42068 -3.57603 0.083585 0.423572 -0.0202137
108 2 0.680354 33.553 40.0115 2.5055 0.399489 -4.45571 0.487412 -0.0943612 -0.138717
109 2 53.4561 -1.06305 28.7424 0.820689 -0.159749 -0.56659 -0.0572923 0.333797 0.352545
110 2 32.7778 21.7358 7.34268 -1.15596 -2.60715 -1.10517 0.23311 -0.820614 0.182401
111 1 42.4204 44.0768 24.6751 -2.21119 -1.68714 3.0329 0.827439 0.216739 0.204902
112 1 17.513 10.3999 40.5753 3.42187 1.74553 1.85258 0.258095 -0.446619 -0.0658506
113 1 4.61111 56.181 44.1945 1.45112 1.00884 -1.02843 -0.490233 0.449675 -0.00815254
114 1 0.967787 51.8137 34.7195 3.07094 0.715638 -1.43771 0.663304 -0.565167 -0.424888
115 2 53.6027 9.26645 43.8138 -1.44073 1.05825 -1.67804 0.248356 0.71811 0.304175
116 1 11.8477 36.1093 34.1751 1.62564 -2.34122 -0.114536 -0.46169 -0.219511 -0.501857
117 1 33.3862 29.5393 0.486992 -1.05192 2.82862 2.42204 0.469246 -0.30001 0.0685674
118 1 35.9398 -2.67816 43.3826 -0.79468 2.53263 -1.64877 0.146643 0.233382 -0.166351
119 1 -0.21881 49.0902 38.2696 3.41663 -0.892007 1.44111 0.093219 0.234569 0.811372
120 1 49.7711 1.5953 -2.50491 -3.10813 0.0308155 -1.48726 -0.0236556 -0.121271 -0.480328
121 1 47.4942 13.4844 34.2111 -1.9113 -0.22981 2.17969 0.379733 0.336234 0.432959
122 1 18.84 22.5391 32.3947 1.02257 -3.50806 0.742098 0.454757 0.0619876 -0.120373
123 1 25.8774 25.7865 22.8817 -0.80833 -0.825258 -1.09366 0.384532 -0.250167 0.0324394
124 1 10.3826 54.1575 25.9329 3.45144 1.67919 -2.76125 -0.483431 -0.558469 0.127322
125 2 7.60589 27.7766 46.6441 -0.031269 0.313331 -1.2667 -0.201281 -0.432617 0.316064
126 2 32.2385 22.6862 34.5039 1.79863 0.845426 0.336128 -0.104496 -0.471642 -0.207077
127 1 22.9061 21.6874 34.942 -3.18668 -1.86975 -1.53702 -0.649926 0.171369 0.539719
128 2 54.34 40.0804 7.13269 0.272772 0.217527 -1.5452 -1.23022 0.0127621 0.0735604
129 1 32.0488 55.4542 44.0057 -0.626327 -1.14876 1.54684 0.31026 -0.431506 -0.529608
130 2 11.1826 55.4017 40.9117 0.0364442 -1.49045 -1.25891 -0.156661 -0.154606 -0.379696
131 1 11.6298 23.8943 -2.06417 -2.50328 3.40323 -0.925675 0.303604 0.408839 0.195279
132 1 22.3279 36.9587 55.2707 -2.93373 -0.191584 0.95774 0.0396364 -0.276099 0.684051
133 2 3.82355 24.8752 42.1832 0.424939 2.32576 -1.42577 -0.140889 -0.397388 0.282676
134 1 18.621 39.0497 24.4989 -1.10014 1.96948 -0.372876 0.127965 -0.22909 0.531925
135 2 18.6809 3.57905 54.1363 0.491741 -2.05327 -0.16178 -0.617468 0.640861 -0.174246
136 1 53.3722 49.859 27.8548 0.925693 4.52748 -0.450864 -0.153693 0.373208 -0.566034
137 2 34.4567 50.0806 20.5153 -1.10155 0.298089 0.921756 -0.317326 -0.339036 -0.168491
138 1 24.1011 22.8623 39.8877 -1.28467 -0.51928 -0.101993 0.965175 -0.136307 -0.203395
139 1 -0.843469 32.9022 33.8649 2.18571 -0.58457 1.9759 -0.316949 -0.335523 -0.141874
140 1 53.5721 42.2716 37.9352 -0.0185595 0.017896 -1.61694 -0.831718 -0.209647 0.0392621
141 1 20.907 -0.668323 27.0173 1.42157 -0.0995978 -1.9208 0.353017 0.331661 -0.225567
142 1 14.7904 5.25065 41.1673 1.01329 1.11995 2.60042 0.625142 -0.0176244 0.0921444
143 1 15.1649 22.5309 29.6412 0.742484 4.04594 -0.147971 0.217748 0.269992 -0.367258
144 1 26.6927 51.3614 38.0613 -2.68918 -1.08714 0.70948 -0.343351 0.266897 -0.454646
145 2 26.1205 -0.0506181 5.01832 0.360596 -1.68979 0.154504 0.548615 0.410128 0.112794
146 2 55.4106 36.0721 26.1998 -0.954907 0.721069 -1.47285 -0.035028 -0.237171 0.0653322
147 2 44.6491 53.1452 31.9477 0.638823 -1.04706 -1.02493 0.553838 0.167777 -0.215696
148 1 16.5889 14.7336 54.1271 -0.0627767 1.26706 -4.31297 -0.126973 -0.20488 0.57958
149 1 -1.08903 32.0261 6.90881 -1.28433 -0.254959 -1.02392 -0.0226507 -0.650204 0.155306
150 2 24.6319 29.7777 12.2444 3.51799 0.633332 3.95002 -0.19589 -0.333734 0.144318
151 1 11.8422 5.52221 19.5266 -1.79861 3.4615 -0.914235 -0.453856 -0.689175 0.0561593
152 2 42.7395 35.0014 13.5611 0.768262 2.06464 2.8974 0.861338 -0.0514111 0.0159389
153 1 14.1313 36.5671 37.8287 -0.375704 -1.46884 -0.150058 -0.26063 -0.0492436 0.0393363
154 2 20.7749 10.6338 18.9277 -0.214395 -0.390954 -1.77461 -0.409581 -0.0292292 0.140767
155 1 54.7951 0.929225 12.9017 -1.83983 1.97445 -0.157857 0.0711273 -0.206636 -0.0738325
156 1 55.7629 31.8986 3.47964 2.31135 -0.534066 -1.36582 0.507518 -0.216939 0.0756943
157 1 42.8499 53.5098 29.6071 -2.95418 -0.351616 -2.26375 0.399329 0.285062 0.179089
158 1 18.0714 32.364 25.9949 -1.79985 -1.80919 -0.478699 -0.615384 -0.420418 0.743704
159 1 40.0756 22.8216 47.3697 -4.11113 0.0542955 -2.31451 0.116148 0.0907249 -0.329425
160 1 44.9938 29.5583 45.7687 -3.52426 -3.7556 -0.0566388 0.200376 -0.140553 -0.225133
161 1 37.4403 39.9349 23.7716 4.29345 2.98421 -1.49928 0.251835 0.296702 -0.848019
162 1 48.1731 51.9139 42.2452 0.978427 -0.917452 0.933597 0.277419 -0.383643 -0.11645
163 1 38.9785 9.4223 -3.23171 -1.15516 -0.90225 -1.41557 -0.341782 -0.306723 0.135183
164 1 37.8009 28.0217 25.2557 1.10608 3.4007 0.356658 0.140439 -0.0106866 0.210079
165 1 6.68128 11.0364 10.7151 1.20181 -0.600814 -0.202018 0.10984 0.263027 -0.190512
166 1 16.5865 42.2714 21.4911 1.87349 0.0413042 -0.628212 -0.53173 -0.156641 0.0852884
167 1 55.3827 49.7295 37.1859 3.77528 -0.412367 -0.699621 0.326107 -0.0324675 -0.0337435
168 1 18.4338 44.5465 8.57952 3.39739 0.227013 3.13087 0.380069 -0.925477 0.160012
169 1 42.0282 41.4301 38.3191 1.68142 1.29324 0.244196 0.151642 -0.332535 0.340771
170 1 12.6188 26.234 46.1782 -3.86144 -0.127251 -0.966022 -0.19083 -0.138922 -0.577233
171 2 30.0057 25.5306 32.2752 -2.04337 -0.155581 0.873319 0.178928 0.224369 -0.252568
172 1 -3.58346 5.20379 34.3514 -0.0513287 0.359977 0.0167921 -0.398074 -0.0543703 -0.653641
173 1 52.8978 -1.3798 -2.41216 -0.782255 -3.7578 -1.30177 0.247198 0.318202 0.546907
174 2 22.197 2.30637 0.611964 -0.898301 0.492057 1.50736 1.08023 -0.281565 -0.00909132
175 2 13.5506 30.4615 38.2074 1.501 -2.03076 -0.273815 0.510392 0.236507 -0.156427
176 1 24.3541 25.7861 2.53291 2.31207 -0.901261 -0.517416 1.0449 -0.0458125 1.28875
177 1 47.5608 13.1969 -0.640638 0.751819 -0.53991 -1.96323 -0.546422 0.0398835 -0.240173
178 2 8.69239 41.636 39.6276 -1.29577 -1.21168 -1.10061 -0.087787 0.0564011 0.312252
179 1 8.78972 33.6155 35.9548 2.19208 -3.36381 2.11393 0.00369647 -0.189745 -0.284133
180 1 10.5788 5.30441 45.2088 -3.2943 0.657316 -1.79835 -0.76097 0.598773 -0.340655
181 2 38.8418 -3.36335 1.47117 -3.27377 0.178778 -0.616239 0.171481 0.140543 0.254361
182 1 12.0523 28.9064 29.7568 -2.32394 -4.3371 -1.59543 -0.519284 0.367618 -0.280514
183 2 0.861403 49.6137 53.6926 -1.18472 2.84833 -1.15287 -0.522664 -0.0855065 -0.518869
184 2 35.7144 5.51836 17.1172 0.868774 3.37422 0.122058 0.274919 0.0409771 -0.498519
185 1 43.0315 -0.448582 -3.44679 -2.08895 0.734675 -0.569535 0.764979 0.0605311 -0.64633
186 1 53.6555 46.5201 20.4526 1.73393 -2.05189 -0.400626 0.0797683 0.335618 0.199879
187 1 33.9413 49.8667 50.673 -0.950709 1.54681 0.441537 -0.0116072 0.431321 -0.519113
188 2 5.46416 31.9184 1.9954 -1.52541 0.273568 -1.19086 -0.534154 -0.903069 -0.297002
189 1 14.3392 47.6973 50.653 1.73458 1.09428 3.3385 -0.745922 0.130406 0.918699
190 2 -2.95331 0.480715 49.5922 0.711047 2.03825 1.28902 -0.198379 -0.373808 0.688852
191 1 26.4309 9.78697 46.1492 -0.147843 0.835306 0.233438 0.503303 0.499819 -0.261986
192 2 24.416 49.3713 38.8959 -0.885696 0.78878 -0.484435 0.363086 -0.0159934 -0.0475397
193 1 30.8987 46.7687 1.77478 1.89647 0.184662 0.113487 0.171352 0.48485 -0.269526
194 2 43.3223 44.6184 47.8078 0.615362 0.31233 2.9458 -0.205191 -0.103974 0.529691
195 2 18.7194 42.2301 32.2641 -1.85969 -0.605623 -1.20965 0.10203 -0.29549 -0.380825
196 1 26.8735 0.4563 7.48236 0.990344 -1.14543 -1.17041 -0.146071 0.0592152 0.0709024
197 1 1.9236 24.6148 30.7197 -0.0768603 -2.22435 1.42887 0.146073 0.234978 -0.45605
198 1 34.0513 15.1914 41.9357 -2.7563 -1.61178 2.04009 0.294223 0.189649 -0.141692
199 1 23.6695 -1.45565 12.8123 2.1404 -0.426544 0.629529 0.527848 0.027318 -0.309927
200 1 38.687 16.8249 -0.271656 -0.0557164 -1.77744 -0.446923 -0.132932 0.965371 0.85084
201 1 55.1578 5.11765 10.5639 0.538998 -1.32184 -1.27181 0.134567 0.0197204 -0.260719
202 1 46.8231 -0.845445 37.0303 -0.722494 1.54618 -1.51638 0.0295437 -0.0739354 -0.047418
203 1 21.5041 0.141394 36.8869 0.623945 -4.21075 -1.86008 -0.649809 0.244116 -0.266293
204 1 17.5932 38.3234 40.2349 -3.91883 -1.17376 2.07617 0.310166 0.354267 -0.0627456
205 2 13.8129 2.11852 54.0686 0.73325 0.230046 -0.952541 -0.345658 -0.0154015 0.0181098
206 1 48.3918 25.7479 27.2483 -3.13283 -0.101563 -3.6084 0.711651 -0.0739584 -0.30356
207 2 0.491946 52.7242 6.8413 -1.61263 0.372127 -0.66922 -0.460625 0.375614 -0.361563
208 1 27.659 1.27468 -3.37981 -1.06383 -0.866534 -2.97136 -0.374951 -0.140461 -0.232644
209 2 28.4361 9.6281 -2.85052 1.67249 0.653632 -2.15958 0.182298 0.425728 -0.297764
210 2 1.12851 28.7785 32.0002 -0.889848 -2.09197 -1.97596 0.106603 -0.342916 0.397376
211 1 36.1832 17.188 28.2175 2.35216 -2.36793 -2.631 -0.33473 0.146974 0.277965
212 1 3.30822 23.0183 37.5349 -1.13598 -1.33168 0.466668 -0.518061 0.22109 0.436721
213 1 4.99464 16.6841 0.622766 6.40983 -1.00709 4.49697 0.246608 -0.0747264 0.512008
214 1 51.6177 12.4837 19.2539 -1.1969 -2.09435 0.938647 -0.270372 -0.0806165 -0.534019
215 2 4.55646 19.2892 19.6862 -2.04669 -2.73785 1.11425 0.18798 0.10009 -0.168851
216 2 48.7367 39.7409 33.4032 0.220975 1.17494 0.467231 -1.1945 -0.655948 -0.566482
217 1 37.0009 13.8559 33.206 1.61402 1.85197 1.96817 0.572618 -0.316675 0.562915
218 2 36.3425 11.9088 44.4312 -3.35984 0.835545 0.750965 0.716877 0.0546488 0.463455
219 2 32.5223 50.1496 25.1055 -0.366879 -1.05813 -2.557 -0.280178 0.742406 -0.310012
220 1 41.4163 5.26575 41.2032 2.22147 -0.766039 -3.61411 -0.0431154 -0.777061 0.0603514
221 2 51.5772 29.309 54.0024 1.32432 0.348043 1.28444 -0.857528 0.23376 -0.01777
222 1 43.8525 13.5782 44.3978 -4.09593 -0.959668 -0.138992 -0.354066 -0.263199 0.290198
223 2 18.8058 8.06052 52.5638 2.44366 0.640377 -0.0445013 -0.236071 0.279762 -0.84253
224 1 2.25987 17.6193 18.871 0.987582 -0.119166 1.91293 0.176907 0.186339 0.0202136
225 1 28.6365 50.6052 27.7458 -3.61321 1.20622 1.30191 0.760745 0.215726 0.329328
226 1 26.123 48.982 37.0765 -2.71474 0.202988 -2.033 0.549111 0.00857524 -0.162237
227 1 50.0002 30.1635 28.976 -1.11727 -5.38307 0.647555 0.980807 0.232025 -0.441175
228 1 6.23981 2.43581 28.2909 2.45438 1.63135 0.394024 -0.0548284 0.282357 0.124412
229 1 1.10624 50.849 20.6333 1.80166 1.83577 2.32956 0.0445437 -0.119176 1.25944
230 1 4.15613 6.42406 -2.59325 3.81855 1.624 1.50285 0.615428 0.50329 -0.321328
231 1 46.0025 10.7238 28.1768 2.56745 -3.78088 -0.138567 0.394931 0.178136 -0.200605
232 2 10.23 2.50446 45.0768 -0.281228 -2.58707 -1.59898 -0.635725 0.0224201 -0.58494
233 2 16.3982 39.8432 45.8063 -0.670428 -2.8437 0.179665 -0.449646 -0.10946 -0.552912
234 1 38.3756 31.4894 8.72594 2.44842 -0.0352958 -1.03126 0.820841 5.47319e-04 0.469013
235 1 24.513 45.8576 23.5688 1.35055 2.22906 -0.316318 0.195276 -0.170784 0.142592
236 1 14.8594 48.1077 8.38858 -0.106197 -2.05249 -3.539 0.287875 -0.581072 -0.660844
237 1 52.2264 -0.149065 47.0075 -2.71523e-04 -1.55717 1.68865 -0.105223 0.379503 -0.0244807
238 1 -2.76167 12.7856 8.5584 -0.421854 -1.72834 1.79588 -0.251656 -0.64017 0.0995924
239 2 7.62764 49.4473 26.3066 -1.52973 0.33824 -1.59368 0.0352108 -0.4007 0.269117
240 1 18.1627 40.1578 36.3147 0.796145 -1.12986 -1.73416 -0.0688107 0.555286 0.276155
241 2 35.4754 -2.06341 25.2751 -0.699919 1.76002 -0.97655 0.409881 0.131619 -0.35669
242 2 34.9007 10.5049 42.1357 1.51534 2.02729 -0.62223 -0.0216718 0.182348 -0.511656
243 1 38.1599 26.3523 27.3546 1.0608 0.0837665 -1.1577 0.299178 0.685045 -0.0912722
244 2 27.3427 -2.88716 23.7468 2.21327 0.0691318 0.877012 0.316221 0.00874354 0.816165
245 1 55.4694 55.4064 42.0571 -1.44046 -0.463565 -1.64381 -0.254143 -0.238701 -0.210571
246 2 24.5557 -2.93704 41.6137 -3.19436 0.124853 -0.813841 0.759194 0.471848 -0.361181
247 1 46.8478 44.7507 24.497 -1.43606 -0.794858 0.630357 -0.113046 -0.0791637 -0.357501
248 2 40.7411 -2.66904 24.5172 3.25638 -2.24204 -2.73899 -0.128009 0.357732 -0.419647
249 1 42.2903 31.3986 3.28006 0.677133 -1.46812 -2.23689 -0.507011 -0.567667 -0.0413803
250 2 25.4552 39.7151 50.0912 -0.771658 -0.908172 -0.192541 0.464298 0.354809 -0.0750417
251 1 4.1608 1.0288 -1.68014 -1.45306 4.24694 1.8966 -0.344224 0.0791864 -0.24149
252 2 23.2979 41.1516 4.30816 0.661352 2.76562 1.82094 -0.373045 -0.235515 -0.333951
253 1 45.2933 37.4838 18.1471 2.98294 2.06089 -0.557184 -0.121198 -0.325437 -0.835122
254 1 55.1726 13.8799 34.6534 -0.482851 5.62295 -1.28031 -0.110888 0.171288 0.0232643
255 1 35.635 -3.67692 50.4923 -1.11667 0.867325 -1.98403 -0.214977 0.32907 -0.653672
256 1 32.3538 16.3597 6.75085 -1.90098 -3.63764 1.06117 -0.872174 -0.651096 0.0703238
257 2 15.5712 10.6437 6.79313 2.22404 0.658198 0.81437 -0.0675509 0.170625 0.357154
258 1 -2.04351 42.5197 14.614 2.81972 2.94483 -3.69416 0.289682 -0.32778 0.0442688
259 2 46.148 50.4965 33.446 -0.40979 -0.327411 1.1411 0.276936 -0.0810537 -0.19388
260 1 -1.18736 10.9497 45.5328 -0.738214 2.08145 -0.331403 0.266635 -0.371832 0.952313
261 1 53.0005 52.7292 39.2908 1.00653 -3.41163 0.786749 -0.196371 0.360922 0.0346609
262 2 22.9345 1.36631 47.0285 1.09052 -4.00864 -0.930468 0.261741 0.0378168 0.0352949
263 1 22.5942 20.5445 24.8395 -0.391676 2.64176 1.87915 0.395337 0.568236 0.178466
264 2 49.4276 34.6927 38.453 -2.11638 -3.04405 1.18614 -0.402533 -0.270509 0.269778
265 1 13.7929 29.8383 43.4974 0.766779 4.77933 0.358102 -1.13978 -0.323028 -0.28567
266 1 12.722 2.96271 36.619 1.72314 -4.86561 3.34938 -0.150119 -0.54658 0.496394
267 1 52.9339 35.7015 54.3009 0.775748 3.48479 -1.80921 -0.611143 -0.695974 -0.297679
268 1 29.7248 32.4165 34.5398 -1.13052 5.77987 0.505431 -0.0993967 -0.203413 -0.66286
269 1 46.2544 13.3591 44.9507 1.90174 0.424274 1.11454 0.0251252 0.272263 0.0327924
270 1 46.9542 26.9642 28.8058 0.603184 -3.4161 1.00403 -1.01971 -0.0734198 -0.0567289
271 1 9.57784 29.2291 45.3745 2.48174 -1.10991 0.889943 -0.253466 0.291131 -0.740955
272 1 27.1913 38.3796 13.1285 0.952328 0.638761 -0.442362 -0.0140677 -0.220995 -0.0284394
273 1 19.8919 30.066 52.4076 -1.48032 2.28033 -1.25917 -0.766561 0.523663 0.4652
274 1 14.95 -0.253602 53.1296 -2.19717 -2.34395 0.6195 0.1759 0.123269 -0.213005
275 1 26.0931 10.0077 53.411 0.0982975 1.04395 -1.51794 -0.622567 0.179069 0.293626
276 1 2.27213 39.3544 37.4155 0.385956 2.32565 0.544081 0.0466738 -0.451438 0.868707
277 1 16.8959 51.5354 33.8722 2.16906 -1.2726 1.2861 0.306757 -0.39412 -0.148515
278 1 6.61907 -0.470332 45.267 0.725126 1.62235 -3.29346 0.406492 -0.43589 0.164389
279 1 38.5159 52.3669 14.1759 -1.12409 -4.20985 1.13619 0.455074 -0.461411 -0.470893
280 2 25.8359 9.22132 18.6684 3.17059 2.16845 -0.018421 -0.0326179 0.264121 -0.637534
281 2 41.4069 23.896 51.6962 0.55147 0.269064 -0.823688 -0.223025 0.492261 -0.373546
282 2 17.0895 42.7961 38.2331 -0.351793 -0.868449 -0.0186824 0.580619 -0.473393 0.277084
283 2 44.7475 -1.44021 10.8643 0.702434 -0.280001 1.01062 -0.249079 -0.498429 -0.702804
284 2 18.7978 52.0847 19.8075 -2.31014 -0.0945794 -2.21829 -0.0748003 0.121207 -0.346156
285 1 48.1638 6.01536 36.3017 -0.503022 2.24499 1.99511 -0.313567 0.13814 -0.420716
286 1 20.1026 56.0924 13.6627 0.535209 1.03754 1.72914 -0.270648 -0.480863 0.534243
287 1 45.2231 47.8631 22.248 -3.33983 -0.00907622 -2.08992 -0.438348 0.529759 -0.370269
288 1 13.4996 43.4455 44.7952 0.71587 -3.65397 0.399004 -0.397037 -0.705022 0.161871
289 1 2.49343 8.16323 29.4111 -1.08639 0.327454 -1.22845 -0.538237 0.173315 -0.0369049
290 2 -1.07898 45.7392 3.01786 -2.99611 -2.79954 0.996387 0.129998 0.222961 -0.185301
291 2 17.1486 36.6971 23.9208 2.38952 -1.15804 0.32757 0.0665474 -0.362981 -0.45853
292 2 13.6219 -1.70547 22.8116 0.348176 0.534071 2.48739 0.830998 0.753259 0.296426
293 1 3.56029 51.0721 3.51275 -1.83046 -0.71193 0.101789 -0.0520576 -0.82746 -0.311015
294 1 34.4815 44.6424 6.64974 0.476007 0.00287747 -1.00312 -0.0369289 0.463786 -0.217993
295 1 13.484 17.7707 12.1709 1.54046 -3.65397 -1.17859 0.171657 0.0108268 -0.0231497
296 2 23.2911 44.8846 8.45147 1.40625 1.95156 0.533081 -0.426424 0.335297 0.291516
297 1 29.7996 18.676 49.7155 0.164793 -2.21442 2.94944 0.405902 -0.54753 -0.575209
298 1 38.3047 13.5875 45.464 -0.60926 -1.12279 2.23726 -0.150508 0.0244287 0.229633
299 2 9.74669 9.7513 22.2745 0.950891 2.03804 0.413857 0.0807197 -0.125348 -0.245485
300 2 52.3484 37.8152 6.20808 1.65252 -1.70443 -0.376325 -0.245229 0.203967 0.673648
301 2 0.922733 4.83989 -0.976973 0.849413 -1.36547 1.87546 -0.505525 0.654841 0.56453
302 2 1.12791 47.5067 49.2411 -0.485166 0.414762 -1.56656 0.0387608 0.674667 -0.0615278
303 2 39.4061 3.60603 28.6068 1.48351 1.85805 -1.81262 0.0181366 -0.77969 -0.289947
304 2 55.7612 49.1541 34.5046 1.86662 -0.984931 0.313473 0.890517 -0.795388 0.0678283
305 2 23.5673 -0.123016 -1.11284 -1.85315 -2.01921 0.960536 0.229404 -0.468525 0.0303181
306 1 25.6805 41.0389 22.1276 1.41615 0.818542 -2.52236 0.519015 -0.469732 -0.143105
307 2 35.1282 6.93391 39.4887 -1.85542 -1.67598 -0.952371 0.431084 -0.145709 -0.262607
308 2 3.65001 53.0873 7.07444 -1.04239 -2.87265 -2.29191 0.0899417 -0.126295 0.46047
309 2 13.1961 32.6843 9.85618 -2.20875 -0.549263 0.811218 -0.0161502 -0.229566 0.124509
310 1 40.122 5.77679 8.19447 -0.102952 0.215159 1.0482 0.100529 -0.509384 0.0720489
311 2 37.9527 43.4704 20.0306 -0.0712793 -1.04887 -4.02766 0.40468 -0.10814 -0.253618
312 1 37.844 6.43428 53.1517 -0.626655 -0.537122 -2.15304 -0.276775 -0.191996 0.19941
313 1 21.6493 5.14327 49.3726 2.65873 -4.09676 1.41923 -0.212953 -0.194353 0.168983
314 2 54.0904 23.7851 19.4262 -1.07085 2.78258 1.45099 0.51725 -0.116859 0.320115
315 2 19.6866 17.5048 49.0865 2.18918 -2.72466 -2.29008 -0.480734 -0.557845 -0.373688
316 1 -2.28004 55.3957 10.0443 -1.07452 -0.531116 0.161853 -0.347695 0.00989288 0.274171
317 1 9.75713 21.3015 45.7361 -0.205557 -3.27397 3.3587 -0.365809 -0.47187 -0.0239485
318 1 -3.48581 -2.2142 41.8753 -0.218826 1.11076 -1.31309 0.341085 -0.0366737 0.00344105
319 1 13.1981 52.6443 30.6428 4.0373 -5.00697 -3.8684 0.334409 -0.042961 -0.765282
320 1 16.2253 45.4386 29.1235 1.36212 1.23319 -0.408194 -0.0961385 -0.381977 0.0905048
321 1 16.0327 15.3092 20.2618 4.14876 -0.455907 2.19773 -0.116284 0.363466 -0.972517
322 1 6.24925 47.1054 18.1513 -1.91137 -1.08628 -1.74782 0.0869391 0.129386 -0.0362097
323 1 1.52768 41.2667 42.4514 0.353159 -0.268277 0.327843 0.429504 -0.403839 0.206295
324 2 12.4244 28.8397 16.315 -1.64236 -0.711211 1.85037 -0.379952 0.638088 0.0265738
325 2 26.0778 46.4281 7.8097 0.972049 0.225497 -0.863461 0.022999 -0.168044 0.391446
326 1 43.6557 33.9502 15.9907 2.93776 -1.43233 0.0521994 0.140345 0.450731 -0.624264
327 2 46.3234 38.4369 11.407 1.73028 -0.206184 3.77152 0.768229 -0.414726 -0.417224
328 1 16.8257 12.4718 23.7224 -1.76122 0.449024 0.709222 -0.433339 0.105463 -0.00898455
329 1 31.8588 4.73269 20.1877 2.94958 -1.28123 -2.16976 0.47862 0.432787 0.0610447
330 2 20.1197 24.741 15.089 -1.30402 -3.30172 -0.797509 -0.0554319 -0.0555526 -0.409601
331 1 32.4386 -2.35569 2.07652 -1.9416 -1.57154 -0.676356 -0.0481137 0.0883842 0.34286
332 2 36.2435 54.7333 24.7019 -3.66816 0.956983 1.41512 0.0590623 -0.312421 0.153396
333 1 27.5169 52.7602 5.42441 3.95883 -1.62783 -1.69438 0.319191 0.0325934 0.210392
334 1 38.9586 51.5743 44.5342 0.00151003 -2.28214 -2.26294 -0.00553647 -0.0823868 0.206622
335 1 49.3749 52.6252 -1.59037 3.56889 -0.0656509 2.46221 -0.613696 0.0176361 -0.0757401
336 1 45.2901 19.5296 13.0369 0.833089 -0.14824 2.01214 -0.419382 -0.172619 0.0735645
337 1 -3.02955 -2.37745 55.9456 -2.02685 4.06729 -1.98415 0.311815 -0.626179 0.435278
338 1 18.4878 48.5621 47.579 -0.782145 0.654661 -2.67263 -0.0626131 -0.152418 0.0693618
339 1 19.6024 18.5085 8.53907 4.21978 -0.0820327 -3.37395 -0.120287 -0.237893 -0.19584
340 2 0.324765 37.8045 16.787 2.19551 1.06953 1.49325 0.510553 -0.376442 0.171985
341 1 49.5879 48.2276 55.3758 -2.11061 1.45548 0.89931 0.450901 -0.143708 -0.639863
342 1 14.1771 48.9171 40.5596 -5.89056 0.026732 -0.039527 -0.0835666 0.526658 0.257088
343 1 23.0103 28.611 49.4525 0.42783 0.313753 -1.29977 -0.492974 -0.0180409 0.171067
344 2 31.2807 8.16318 31.0058 2.71485 -0.595809 -0.438543 -0.424019 -0.487017 -0.0351047
345 1 20.1377 9.3723 16.6167 -0.87662 -1.57327 -2.01026 -0.0571116 0.0915212 0.0892226
346 2 40.4291 36.113 4.61971 -1.36562 1.63241 1.57322 -0.0319404 -0.32935 -0.0722842