ITEM: TIMESTEP
22000003
ITEM: NUMBER OF ATOMS
13500
ITEM: BOX BOUNDS pp pp pp
-3.6954 56.1954
-3.6954 56.1954
-3.6954 56.1954
ITEM: ATOMS id type x y z vx vy vz fx fy fz
1 1 26.0484 54.9041 24.4305 3.15112 -2.1788 -4.10677 -0.167613 -0.609011 -0.298068
2 2 42.4989 36.7754 37.0558 0.628913 -0.970458 -2.25462 0.209208 -0.171111 -0.211628
3 2 44.3727 24.9149 17.9006 0.0512909 1.25645 -2.7223 0.0506094 0.730081 -0.00566887
4 1 53.91 13.27 54.6942 -0.447348 0.429139 0.00917268 0.213642 0.488491 -0.209872
5 1 30.7766 28.6036 25.9005 -0.808452 -1.24687 -0.195139 -0.248385 -0.558447 0.187199
6 2 38.4979 42.236 52.6743 1.63064 -0.808124 0.657154 -0.178321 0.0692553 0.264118
7 1 43.87 29.5024 16.3116 2.25974 -0.717901 1.59954 0.175362 0.908554 -0.0437676
8 1 1.89763 -0.609686 42.7472 5.00789 -2.54427 0.70047 0.265252 0.273427 -0.370627
9 1 51.4161 28.6463 17.3182 -1.7361 -1.31874 0.462977 0.13482 -0.504463 0.209155
10 1 33.385 53.1305 14.5979 -1.39491 0.76188 -1.65314 -0.0270901 -0.092395 -0.36939
11 2 33.0297 43.5327 55.2116 -1.7308 1.77603 -1.11813 -0.335942 -0.2312 -0.0386741
12 1 1.64398 47.9535 -1.79682 -0.514463 -0.235377 1.4366 -0.143231 -0.0721767 0.0587118
13 1 30.1692 6.18397 3.01667 -1.55533 -0.88758 -1.82046 -0.109823 -0.0619837 0.0402564
14 1 13.2832 32.4104 36.4027 -1.72858 1.69028 2.50582 0.0745436 0.309555 0.180762
15 1 35.8898 3.19226 48.1347 0.398048 -0.776988 -1.20758 0.458376 0.0803211 -0.268491
16 2 45.4662 21.4145 21.7458 2.17889 -4.47674 1.52534 0.260382 -0.0921515 -0.184463
17 1 7.65966 1.87254 43.4717 -0.110751 -1.97787 -2.73548 0.245673 -0.588758 -0.411697
18 1 52.7836 29.9059 42.7276 2.31794 -0.166433 1.95647 0.318824 -0.439698 0.0439819
19 1 42.8711 15.7117 45.0645 -2.50694 -0.070613 1.51108 -0.0347644 0.681025 -0.576717
20 1 20.0839 9.85922 4.09291 0.341062 -2.3351 0.532682 0.266669 -0.266805 -0.116396
21 2 49.1902 18.4804 41.4546 -0.722138 2.02122 -1.59407 -0.071739 0.38263 -0.123603
22 1 54.7374 7.33103 2.02129 1.14828 -1.54651 2.28204 -0.0403186 0.434776 -0.2369
23 2 24.1567 1.60388 3.11468 -0.0639298 1.14861 -0.517398 -0.0581785 0.516391 0.124192
24 2 32.1457 52.0533 54.7748 1.76476 -0.996315 0.997445 0.406104 0.28356 -0.0679887
25 2 46.8329 14.5315 31.5401 -1.42427 -0.862392 -0.495684 0.682414 -0.0788635 0.650307
26 1 -0.431742 27.1883 -1.12329 -0.913322 -1.36023 0.862222 0.039863 -0.0611031 0.208829
27 1 43.7143 0.948876 40.2599 -3.65911 -0.481119 0.229573 -0.141709 -0.784679 -0.664199
28 1 28.6858 -2.00977 32.564 -1.32687 0.818486 1.36957 -0.559083 0.247322 0.122089
29 1 0.367213 33.2882 13.1659 -1.39856 -0.135227 -1.74633 -0.330263 0.25281 0.965678
30 1 16.7997 55.7853 0.814086 -2.56903 1.55094 1.73765 0.155164 -0.147896 -0.270502
31 2 0.0194503 54.3379 18.2538 1.27475 -0.292968 0.623882 0.188761 -0.263753 -0.220644
32 1 45.723 48.3745 26.86 0.699312 0.627711 -3.26384 0.0550963 0.201595 -0.462227
33 1 9.41318 20.6486 29.0664 0.732379 1.58359 -0.0728901 -0.0587927 0.299539 0.0476765
34 1 44.8204 21.182 29.7992 2.25389 -2.75059 0.242169 -0.00213237 -0.223263 0.223111
35 2 34.8314 -2.78677 20.4833 1.72457 1.7003 0.304027 0.177465 0.541157 0.230285
36 1 39.1671 36.514 7.16362 -3.29991 0.133507 -0.384096 -0.131435 -0.425185 -0.0499817
37 1 -1.17265 3.07097 31.5621 -1.30444 1.26492 1.45523 0.0889935 -0.4715 -0.93551
38 2 49.8173 4.45193 49.1793 -0.154006 0.734723 2.25676 0.260544 -0.269093 -0.450966
39 2 24.9219 34.7228 51.2063 -1.24591 -3.62549 -2.1169 0.143227 0.280352 -0.346692
40 2 51.052 38.1847 40.3846 1.33693 -1.68055 -0.607024 0.494484 0.864941 0.0473991
41 1 8.66367 23.4952 19.9572 -0.198641 -2.00083 3.08884 -0.290195 0.148083 -0.0780228
42 1 -2.79832 54.9234 38.4218 0.473952 2.40694 -1.16455 -0.106988 -0.408563 0.199908
43 1 33.5099 3.69611 48.3224 -0.986557 -2.22705 1.41007 -1.17006 -1.19243 0.528405
44 1 46.5914 19.3728 15.166 -2.1812 1.05713 0.602687 -0.322889 0.286811 0.218011
45 1 23.1459 33.8533 53.3602 -0.850346 0.989065 0.66613 0.554434 -0.340968 0.0268998
46 1 37.647 40.103 -1.01588 3.13877 1.19693 -3.41844 -0.38452 -0.489673 0.133255
47 1 46.1172 10.8929 14.8321 3.35015 -0.630626 -2.07267 -0.050371 0.345107 0.376683
48 2 12.3028 16.4882 19.3978 0.911445 0.806237 -0.924971 0.0708686 0.552895 -0.368607
49 1 7.89525 30.4062 1.01377 1.90254 -0.0104341 -1.82595 -0.087894 0.859106 0.233319
50 1 34.4925 4.56011 14.4272 -6.01646 3.33725 2.31909 0.502777 -0.161577 -0.442286
51 1 12.3234 32.4469 53.0325 -0.695781 1.76406 -1.6646 -0.27154 -0.298957 0.0151518
52 2 30.4167 29.4351 34.8362 0.961645 0.410308 3.96876 -0.0881913 0.73719 -0.239562
53 1 35.9965 37.1031 11.293 0.669344 -1.39059 1.55495 0.0547632 0.735747 -0.346559
54 1 34.7059 1.46899 3.9398 -0.58251 1.09616 -1.31929 0.416397 0.43969 0.132212
55 1 33.9439 -1.63865 16.8787 0.00302195 0.757741 2.42864 0.855264 -0.470927 -0.154673
56 1 26.8257 26.1983 40.0352 -2.88823 -0.261409 -1.78972 0.0257239 -0.121798 0.682507
57 1 -2.74036 50.8262 41.4694 -0.466452 -0.454506 1.47982 -1.13783 -0.0925179 -0.127931
58 2 45.3195 22.2144 -1.53703 -1.47461 1.50838 0.964506 -0.667847 -0.057406 -0.099462
59 1 21.2293 -2.32883 36.3112 0.639907 1.16073 -1.83837 0.62026 -0.417487 -0.0765719
60 1 12.7493 6.75003 55.1666 2.54789 3.00501 0.345742 0.657917 -0.113777 -0.136758
61 1 35.8313 31.0591 33.3026 -1.20744 -0.690769 0.759592 -0.00226936 0.154297 -0.189712
62 2 17.736 48.0978 37.8058 -1.88365 0.167181 -1.77775 -0.0166916 0.224173 -0.335036
63 1 41.7889 9.70703 24.2938 -1.07342 -1.31023 0.163189 -0.839724 1.41394 0.136546
64 1 8.82596 5.5747 10.5239 1.51674 -1.36313 2.10245 -0.0426227 0.650995 -0.257957
65 1 8.24285 29.5806 51.4128 1.86963 4.41268 -2.15002 -0.330137 0.381055 0.0159399
66 1 18.4607 53.5383 46.2886 -2.08407 -2.16669 0.340159 0.17812 0.575593 -0.126114
67 1 21.1142 12.534 54.3678 0.339728 -0.604538 0.857536 -0.0666165 0.899313 -0.677117
68 1 1.97686 22.0313 8.01281 -0.186621 2.37991 1.30721 -0.0386239 0.394011 -0.426364
69 1 21.6984 48.3166 53.6743 1.81837 0.130581 0.537522 -0.332817 -0.592704 0.0180298
70 1 27.7456 49.3972 23.1608 -1.0731 1.68738 2.14151 0.205226 0.14297 -0.629581
71 2 41.5094 26.3557 4.35311 -1.42194 1.46912 -3.90947 -0.495184 0.0785323 0.095938
72 2 47.7964 28.9234 50.4717 0.412212 1.10764 -0.0228623 -0.511918 0.537349 0.115004
73 1 8.40642 11.3336 27.8061 2.1804 2.1194 -1.81668 -0.132606 -0.72486 0.104495
74 1 36.3475 8.2988 -3.19378 -0.178425 -0.812802 1.31366 0.195994 -0.265777 -0.575216
75 1 36.4211 22.8689 -3.07646 -2.25613 -0.548199 -0.490878 0.249956 -0.218942 -0.057406
76 1 18.628 5.56861 38.5607 -1.60042 0.233422 0.410112 -0.271074 -0.435626 0.429424
77 2 14.9605 19.0252 -2.47564 -2.34278 0.384249 -0.635379 -0.0323292 0.154719 0.0813906
78 1 38.7192 -0.620443 49.2724 -0.724578 2.76066 0.448431 0.89392 -0.0237062 -0.453895
79 1 0.944457 39.1147 6.73706 1.4188 0.702249 -2.24953 6.44818e-04 -2.51787e-04 0.16683
80 1 39.5874 39.8301 -2.89547 1.45092 1.56642 2.24776 -0.11691 0.616716 0.132954
81 1 28.0796 36.2261 -0.22263 1.15918 -0.345249 -1.43931 -0.477119 0.545022 -0.226836
82 1 48.6811 -0.286471 38.7244 1.23234 1.48406 -0.468709 0.386018 -0.028657 -0.206066
83 2 52.5405 46.9808 13.909 0.404149 -3.7198 1.7292 0.749764 -0.0188982 -0.258412
84 1 45.3868 7.60787 39.5901 0.92688 -0.637778 1.84756 0.366636 0.157832 -0.300523
85 1 41.0334 50.4206 -0.891754 0.780818 -0.560561 -2.47397 -0.251928 0.0552852 0.497611
86 1 39.3745 15.5296 7.15133 -1.59221 -0.499697 -0.250694 -0.280628 0.602775 -0.185202
87 1 21.7565 3.20184 44.5492 -0.568651 -0.210938 -0.988537 -0.329884 -0.105131 -0.0425237
88 1 -2.6493 13.4129 6.0749 2.64561 -0.120328 0.179014 -0.51805 -0.58703 -0.0199661
89 1 13.3251 49.9232 33.7278 -0.424073 -0.783352 1.51043 -0.570227 -0.856856 -0.16754
90 1 45.493 48.2487 32.3182 -0.554085 -1.88786 -2.3614 0.259784 0.515743 -0.31957
91 1 21.0284 29.8895 4.29567 4.71901 -1.40734 -0.186743 -0.0643299 0.276353 0.780025
92 1 55.7654 -0.379788 40.1407 4.24396 -0.972161 0.261132 -0.23122 0.0220037 -0.264637
93 2 19.8099 47.467 33.0917 0.851806 -1.16416 -0.387021 0.10361 -0.127063 0.204462
94 2 4.885 47.5758 30.2269 0.916995 0.843774 -0.894449 -0.13933 -0.499923 -0.0351481
95 1 52.0115 51.471 29.0422 0.303892 0.724475 1.14291 -0.542851 0.0197712 -0.432041
96 1 43.2348 -3.32837 37.9742 2.27217 1.52177 0.605587 0.14005 0.487654 0.463082
97 1 56.1004 28.0985 20.8237 2.41395 -0.248424 -0.010759 -0.226627 -0.315984 -0.494789
98 1 11.3216 20.9957 15.9579 -2.78553 -2.95419 -0.709429 -0.383474 -0.594704 0.231349
99 1 8.64593 33.8819 26.8697 -0.699729 -1.57389 -1.21734 0.543723 0.271248 0.126389
100 2 54.7973 54.6878 11.8746 -0.604143 2.35598 -1.53094 0.25117 0.414468 0.489519
101 2 6.27928 11.0376 15.4631 0.0682225 1.41223 -0.256834 -0.108277 0.37743 0.389029
102 1 43.1221 34.7695 54.0722 -1.85681 1.08545 -1.06046 -0.221937 -0.0416611 -0.608088
103 1 7.36666 52.1096 5.15455 1.29246 -0.518957 0.398807 0.676268 0.461495 0.357788
104 1 30.5127 40.5282 37.0983 1.21707 -0.415823 -2.70757 0.102915 -0.144174 -0.201328
105 1 9.45216 41.0442 45.5811 -2.29025 -1.06613 1.55308 0.149324 -0.683508 -0.0996576
106 1 7.62574 26.2206 4.73609 -0.5212 1.04348 -0.978241 0.141732 0.171041 -0.675361
107 1 26.122 7.49401 25.0037 -1.1354 0.876788 -3.4934 0.0201485 0.475036 -0.145147
108 2 0.662365 33.5494 40.0463 2.07032 0.487744 -4.26384 0.568069 -0.111215 -0.371537
109 2 53.4489 -1.06018 28.7481 0.885996 -0.475222 -0.850074 -0.0837169 0.404791 0.307913
110 2 32.7876 21.7539 7.35235 -1.28596 -1.87423 -1.23723 0.0575756 -0.931665 0.10965
111 1 42.4417 44.0911 24.6521 -3.13551 -1.92984 2.69373 0.657291 0.166331 0.374963
112 1 17.4871 10.3842 40.56 3.08305 2.19784 1.88588 0.32608 -0.276461 0.0273343
113 1 4.5975 56.1748 44.2024 2.0131 0.429387 -1.01243 -0.414685 0.500858 -0.027922
114 1 0.947084 51.8046 34.7287 2.14844 1.50055 -0.876031 0.866487 -0.707443 -0.503405
115 2 53.6146 9.2607 43.8279 -1.60691 0.431954 -1.90335 0.124612 0.761155 0.200012
116 1 11.8326 36.1267 34.1734 2.19148 -2.03001 0.538373 -0.446023 -0.310876 -0.564058
117 1 33.3967 29.5152 0.468166 -1.60387 3.15634 2.39384 0.424756 -0.210049 -0.00445163
118 1 35.9467 -2.69668 43.3947 -0.946359 2.16822 -1.42285 0.0934733 0.382144 -0.218172
119 1 -0.245071 49.0981 38.2619 3.19938 -1.17272 0.430697 0.291642 0.2141 0.853731
120 1 49.7953 1.59482 -2.49507 -2.98463 0.174776 -0.857715 -0.202675 -0.117781 -0.559816
121 1 47.5111 13.4881 34.1958 -2.38826 -0.633872 1.61136 0.384214 0.319602 0.51441
122 1 18.8341 22.5673 32.3883 0.45408 -3.47554 0.806532 0.482823 -0.139014 0.0192967
123 1 25.8857 25.7918 22.8907 -1.24602 -0.492199 -1.13169 0.321101 -0.293285 0.018674
124 1 10.3531 54.141 25.9554 3.9477 2.34861 -2.83449 -0.295124 -0.518841 -0.0332631
125 2 7.60568 27.7727 46.655 0.154629 0.642571 -1.50267 -0.233618 -0.339842 0.222237
126 2 32.2238 22.6779 34.5004 1.82116 1.25071 0.514498 0.0761701 -0.470685 -0.20678
127 1 22.9284 21.7032 34.9567 -2.36537 -2.05451 -2.1414 -0.722313 0.11595 0.434889
128 2 54.333 40.0785 7.14561 1.40422 0.227786 -1.61989 -1.39412 -0.0413222 0.0752602
129 1 32.0553 55.4608 43.9908 -1.01556 -0.602316 2.09156 0.314698 -0.469527 -0.342228
130 2 11.182 55.4126 40.9203 0.180901 -1.34414 -0.93653 -0.181845 -0.204425 -0.386016
131 1 11.6513 23.8693 -2.05541 -2.79515 2.85741 -1.1685 0.149316 0.506509 0.193281
132 1 22.3512 36.9588 55.2661 -2.80562 0.107914 0.104795 -0.272967 -0.212826 0.713413
133 2 3.82002 24.8555 42.1953 0.526503 2.5522 -1.65137 -0.0933672 -0.1055 0.226833
134 1 18.6307 39.0327 24.5044 -1.28527 2.21439 -0.970518 0.168068 -0.152886 0.441547
135 2 18.6749 3.59792 54.1366 1.02117 -2.57734 0.00260442 -0.613663 0.558653 -0.216029
136 1 53.3637 49.8245 27.8555 1.10209 3.9968 0.262748 -0.126639 0.529012 -0.600231
137 2 34.4643 50.0767 20.5075 -0.821209 0.592105 1.04603 -0.355643 -0.349095 -0.116523
138 1 24.116 22.8659 39.8872 -2.41339 -0.362065 0.175484 0.862269 -0.120759 -0.24938
139 1 -0.861784 32.9052 33.8486 2.4334 -0.184982 2.05348 -0.0673699 -0.323015 0.0333815
140 1 53.5678 42.2702 37.9482 1.00467 0.272441 -1.66545 -0.831635 -0.196483 0.0185811
141 1 20.8975 -0.665447 27.0315 0.965862 -0.538119 -1.62416 0.399377 0.37906 -0.270207
142 1 14.7854 5.24193 41.1468 0.286489 1.1287 2.48953 0.571966 0.0108669 0.110901
143 1 15.1602 22.5001 29.6405 0.487824 3.63768 0.30391 0.203171 0.424602 -0.371203
144 1 26.7125 51.371 38.0533 -2.26294 -1.38658 1.27335 -0.377734 0.214242 -0.464818
145 2 26.1195 -0.0353392 5.01791 -0.134497 -2.03438 4.73118e-04 0.600671 0.361155 0.23329
146 2 55.4177 36.0654 26.2118 -0.917777 0.930589 -1.5305 -0.0630325 -0.243557 0.0441785
147 2 44.6456 53.1537 31.9551 0.163335 -1.166 -0.843108 0.571124 0.0965079 -0.224274
148 1 16.589 14.7226 54.1637 0.0511729 1.52018 -4.85809 -0.0601864 -0.195205 0.275762
149 1 -1.07871 32.0248 6.91779 -1.16969 0.559759 -1.11854 -0.176441 -0.680345 -0.0132843
150 2 24.6035 29.7715 12.2136 3.52484 0.873139 3.75259 0.210323 -0.220406 0.36694
151 1 11.8545 5.49148 19.5343 -1.2219 4.2826 -0.969363 -0.506236 -0.620239 0.0254269
152 2 42.736 34.9847 13.5382 0.057567 2.08877 2.85622 0.810829 0.0217045 0.115939
153 1 14.1331 36.5785 37.8298 0.00130372 -1.41398 -0.167139 -0.356976 -0.0556458 -0.0116926
154 2 20.7754 10.6369 18.9425 0.0997841 -0.313828 -1.88492 -0.329244 -0.1539 0.0980583
155 1 54.8097 0.912975 12.9028 -1.89707 2.14489 -0.087675 0.004875 -0.0580821 -0.0393266
156 1 55.7465 31.9018 3.49126 1.67269 -0.28782 -1.46024 0.554382 -0.185789 0.0642527
157 1 42.8753 53.5136 29.626 -3.4425 -0.704188 -2.49976 0.370067 0.286582 0.190564
158 1 18.0828 32.3761 26.0023 -0.994566 -1.20773 -1.36197 -0.71518 -0.57313 0.694578
159 1 40.1087 22.8216 47.3862 -4.16568 -0.0328969 -1.86161 -0.0624894 0.0509963 -0.42971
160 1 45.0225 29.5875 45.7677 -3.68701 -3.55635 0.221116 0.034988 -0.218667 -0.227239
161 1 37.4077 39.9123 23.7791 3.7067 2.6317 -0.302983 0.752379 0.306121 -1.12113
162 1 48.1664 51.9191 42.2369 0.587614 -0.449792 1.11234 0.369439 -0.387584 -0.165251
163 1 38.9859 9.42829 -3.21934 -0.732741 -0.54027 -1.574 -0.357297 -0.291228 0.109961
164 1 37.7926 27.9947 25.2539 0.926479 3.33565 0.113064 0.160086 0.143662 0.188429
165 1 6.67255 11.0424 10.7158 1.03309 -0.81804 0.093849 0.173376 0.0885144 -0.295692
166 1 16.5691 42.2702 21.4966 2.49956 0.218725 -0.728078 -0.468672 -0.131497 0.0720966
167 1 55.3539 49.7323 37.1913 3.29153 -0.374411 -0.696329 0.497227 -0.0332139 0.0181408
168 1 18.4088 44.54 8.55556 2.84461 1.32053 2.90766 0.550968 -0.854937 0.237304
169 1 42.0153 41.418 38.3188 1.48682 1.65489 -0.207021 0.180019 -0.247716 0.393499
170 1 12.6488 26.2343 46.1829 -3.54626 0.0662707 -0.284218 -0.356278 -0.178078 -0.545329
171 2 30.0225 25.5326 32.2674 -2.12732 -0.30741 1.03547 -0.0126476 0.124147 -0.110086
172 1 -3.58437 5.2012 34.348 0.352273 0.322118 0.781709 -0.264283 0.113487 -0.595412
173 1 52.9047 -1.3481 -2.39872 -1.02504 -4.02248 -1.95399 0.140877 0.0785379 0.504196
174 2 22.2078 2.30178 0.600329 -1.75962 0.740686 1.47396 0.92146 -0.286209 0.104557
175 2 13.5407 30.4785 38.209 1.0062 -2.20833 -0.163166 0.666852 0.156542 -0.107931
176 1 24.3408 25.7929 2.54374 1.0324 -0.787312 -2.10784 1.03189 -0.137103 1.28301
177 1 47.5519 13.2015 -0.625797 1.41154 -0.552019 -1.64321 -0.522356 -0.0285859 -0.297415
178 2 8.70269 41.6456 39.6372 -1.21394 -1.24438 -1.34359 -0.11884 0.00653423 0.243294
179 1 8.77248 33.6413 35.9365 2.17325 -3.07788 2.42442 0.0437984 -0.303773 -0.206498
180 1 10.6015 5.30242 45.221 -2.29231 -0.0948079 -1.28393 -0.902853 0.631029 -0.513807
181 2 38.8683 -3.36391 1.47729 -3.38225 0.0668149 -0.823777 0.0404769 0.122838 0.221014
182 1 12.0684 28.9425 29.768 -1.61883 -4.64231 -1.19701 -0.645343 0.0922669 -0.383604
183 2 0.869571 49.5903 53.6997 -0.7857 2.893 -0.723225 -0.427601 0.0154244 -0.500708
184 2 35.7084 5.49197 17.1148 0.59147 3.26734 0.498339 0.377887 0.24384 -0.379861
185 1 43.0514 -0.453593 -3.44482 -2.87521 0.579574 0.157617 0.499289 0.198555 -0.540058
186 1 53.6418 46.5378 20.4569 1.59932 -2.40816 -0.663025 0.153743 0.226507 0.224563
187 1 33.9487 49.8562 50.6666 -0.925225 0.962142 1.10048 -0.0404508 0.539028 -0.547047
188 2 5.47483 31.9131 2.00416 -1.0709 0.992504 -0.902456 -0.544312 -0.76899 -0.391809
189 1 14.3219 47.689 50.6305 2.62858 0.898294 2.16722 -0.70017 0.198892 1.02239
190 2 -2.95927 0.463698 49.5839 0.876829 2.27415 0.693881 -0.181561 -0.157592 0.724845
191 1 26.4345 9.78291 46.1458 -0.753213 0.24072 0.543504 0.481723 0.47855 -0.244355
192 2 24.4243 49.3647 38.8994 -1.18042 0.80005 -0.407893 0.319751 -0.0038111 -0.140581
193 1 30.8844 46.7693 1.77294 1.64052 -0.418016 0.422533 0.259404 0.502486 -0.233622
194 2 43.3164 44.6153 47.7859 0.793973 0.39942 2.43152 -0.208531 -0.0984223 0.711294
195 2 18.7346 42.2338 32.2722 -1.9245 -0.380081 -0.819763 0.0238965 -0.238823 -0.55082
196 1 26.8649 0.466097 7.49223 1.14455 -1.20965 -1.21646 -0.0953534 0.0295947 -0.00212774
197 1 1.92536 24.6337 30.706 -0.292847 -2.48381 1.96258 0.206281 0.171168 -0.401814
198 1 34.0744 15.2054 41.9184 -3.02782 -1.8259 2.23944 0.125475 0.142175 -0.164628
199 1 23.6551 -1.45171 12.8061 1.46207 -0.46495 0.931337 0.591392 0.0305275 -0.176762
200 1 38.6867 16.8439 -0.263519 0.0874944 -2.90581 -1.50136 -0.101636 0.855421 0.865411
201 1 55.1537 5.12863 10.573 0.362495 -1.35004 -0.946926 0.158272 0.0145774 -0.280339
202 1 46.8286 -0.857587 37.0419 -0.722149 1.54887 -1.40786 -0.0345861 0.0852884 -0.140763
203 1 21.4961 0.176361 36.9003 1.37139 -4.39653 -1.51915 -0.562304 0.0205402 -0.306795
204 1 17.6261 38.3343 40.2178 -4.27104 -1.5869 2.16192 0.230428 0.308028 -0.0580915
205 2 13.8061 2.11695 54.0759 1.01545 0.246454 -0.96342 -0.30637 -0.0204392 -0.00337034
206 1 48.42 25.7484 27.2755 -3.96214 -0.0365364 -3.16943 0.612129 -0.0349581 -0.442154
207 2 0.50359 52.7222 6.84564 -1.20149 0.054092 -0.344479 -0.520551 0.371248 -0.40481
208 1 27.6656 1.28139 -3.35692 -0.581494 -0.742531 -2.62704 -0.417472 -0.0704119 -0.353826
209 2 28.4234 9.62453 -2.8339 1.49033 0.299708 -1.88934 0.266045 0.40562 -0.358219
210 2 1.13625 28.7938 32.0172 -0.943824 -1.73982 -2.28775 0.0081836 -0.508219 0.307651
211 1 36.1625 17.2078 28.2396 2.76751 -2.5485 -2.84986 -0.323339 0.124215 0.0565388
212 1 3.31525 23.03 37.5331 -0.56357 -1.55754 -0.0278169 -0.424154 0.132186 0.370429
213 1 4.94531 16.6921 0.590071 5.92647 -1.01949 3.69754 0.594995 0.0883388 0.83252
214 1 51.6255 12.5001 19.2441 -0.831279 -1.92729 1.46917 -0.331351 -0.207538 -0.321157
215 2 4.57365 19.3115 19.6769 -2.1573 -2.78365 1.21557 0.0508068 -0.0230473 -0.058054
216 2 48.7307 39.7291 33.3975 1.1589 1.7239 0.921387 -1.00463 -0.614399 -0.488947
217 1 36.9908 13.8399 33.1931 0.835585 2.17141 1.21582 0.710952 -0.192569 0.67687
218 2 36.3715 11.9025 44.4265 -3.88474 0.77856 0.351282 0.473101 0.0868825 0.485981
219 2 32.5242 50.1603 25.1248 -0.147086 -1.67512 -2.28119 -0.239433 0.687721 -0.365837
220 1 41.3981 5.2685 41.232 2.25297 0.132083 -3.62428 0.0135611 -0.696444 -0.0819162
221 2 51.5634 29.307 53.9916 2.00361 0.125265 1.34574 -0.697226 0.285114 -0.111123
222 1 43.883 13.5845 44.4 -3.56233 -0.563198 -0.497103 -0.5546 -0.388781 0.295095
223 2 18.7857 8.05661 52.561 2.59789 0.397498 0.609962 -0.100976 0.296452 -0.689837
224 1 2.25326 17.6212 18.8561 0.730195 -0.324326 1.82043 0.250209 0.149275 0.146074
225 1 28.6688 50.5964 27.7369 -4.42674 0.86454 0.954217 0.535195 0.351024 0.244464
226 1 26.1473 48.9802 37.0917 -3.34228 0.174629 -1.77922 0.449843 0.0404231 -0.267192
227 1 50.0134 30.2075 28.9687 -2.23883 -5.59324 1.13276 0.834202 0.0609549 -0.339861
228 1 6.22025 2.42444 28.2882 2.49544 1.29743 0.276572 0.00622001 0.276896 0.0716893
229 1 1.0925 50.8334 20.621 1.70195 1.98446 0.756478 0.131794 -0.105741 1.3162
230 1 4.12897 6.4138 -2.60636 3.03144 1.00741 1.85893 0.704969 0.518796 -0.24659
231 1 45.9838 10.7549 28.1769 2.00741 -3.89647 0.125183 0.542525 -0.0203278 -0.227935
232 2 10.2303 2.52544 45.0873 0.240077 -2.55754 -1.11074 -0.5896 -0.122668 -0.580083
233 2 16.4022 39.8653 45.8027 -0.278572 -2.70626 0.644778 -0.477775 -0.248475 -0.534367
234 1 38.3598 31.4895 8.7366 1.44629 0.00670195 -1.55177 0.83413 -0.0684904 0.370699
235 1 24.5033 45.8386 23.5721 1.05134 2.46616 -0.473191 0.303707 -0.196771 0.110723
236 1 14.8619 48.1209 8.41382 -0.460399 -1.30636 -2.68963 0.286419 -0.652688 -0.755078
237 1 52.2254 -0.134575 46.9937 0.17732 -1.94545 1.68767 -0.187967 0.240326 0.0395373
238 1 -2.75917 12.7964 8.54482 -0.0955851 -0.929658 1.65405 -0.286276 -0.67766 0.14631
239 2 7.64037 49.4429 26.3201 -1.60487 0.69032 -1.76744 0.122851 -0.422849 0.1143
240 1 18.1561 40.1693 36.3296 0.89142 -1.74931 -1.99911 -0.0812136 0.443456 0.138883
241 2 35.4822 -2.07672 25.2817 -1.0092 1.67351 -0.665547 0.304586 0.0941068 -0.385665
242 2 34.8884 10.4897 42.1388 1.52585 1.83009 -0.206368 0.0151082 0.303404 -0.467327
243 1 38.1528 26.3548 27.3634 0.667523 -0.666241 -1.05021 0.346181 0.531499 -0.0936979
244 2 27.3261 -2.88726 23.7426 1.93022 0.0559369 0.198814 0.375104 0.0219117 0.781224
245 1 55.4793 55.4085 42.0689 -1.11168 -0.145838 -1.34958 -0.294036 -0.284263 -0.280856
246 2 24.5838 -2.93601 41.6187 -3.81137 -0.280977 -0.477539 0.6455 0.479958 -0.435885
247 1 46.8584 44.7563 24.4903 -1.28778 -0.661873 1.04912 -0.141921 -0.140556 -0.3168
248 2 40.7145 -2.64949 24.5376 3.32716 -2.54129 -2.32703 0.00310993 0.317147 -0.574867
249 1 42.2822 31.4076 3.29786 1.29284 -0.783025 -2.09901 -0.488387 -0.562319 -0.200431
250 2 25.4629 39.7233 50.0921 -1.13068 -1.18527 -0.12263 0.370204 0.285131 -0.0925612
251 1 4.17104 0.995827 -1.6961 -1.02821 4.03923 2.18476 -0.360227 0.300362 -0.209694
252 2 23.2913 41.1286 4.29281 1.00197 2.9091 2.08568 -0.419851 -0.0665206 -0.266237
253 1 45.2687 37.4657 18.1475 3.08122 2.41083 0.497085 -0.0173437 -0.225233 -0.888502
254 1 55.1755 13.8362 34.6635 -0.346616 5.30035 -1.27128 -0.116637 0.408068 -0.0458289
255 1 35.6427 -3.68178 50.5046 -0.797039 0.445124 -1.15236 -0.313663 0.360256 -0.718696
256 1 32.3646 16.3857 6.74303 -0.793257 -2.81332 0.952448 -0.950453 -0.724867 0.116091
257 2 15.5535 10.6393 6.7881 2.22487 0.484595 0.507532 0.0885096 0.24157 0.374518
258 1 -2.0642 42.4946 14.6439 2.43692 3.23782 -3.70649 0.35874 -0.122201 -0.0553628
259 2 46.1521 50.4986 33.4362 -0.701513 -0.293163 1.30026 0.402038 0.00151307 -0.162238
260 1 -1.17988 10.9315 45.5398 -1.01802 2.51481 -1.49053 0.178401 -0.314425 0.931366
261 1 52.9912 52.7579 39.2845 1.21897 -3.83886 0.722981 -0.139793 0.300957 0.0727984
262 2 22.9268 1.39872 47.0357 0.836025 -3.98574 -0.949616 0.347966 -0.140815 -0.00344462
263 1 22.5993 20.5262 24.8255 -0.854181 1.93088 1.61599 0.35165 0.618844 0.272356
264 2 49.4428 34.7159 38.4443 -1.76544 -2.74264 0.92832 -0.446902 -0.474872 0.35005
265 1 13.7816 29.7986 43.4929 2.07688 5.10979 0.711422 -0.986768 -0.174142 -0.288677
266 1 12.7076 2.9989 36.5946 1.94641 -4.03931 2.66324 -0.197286 -0.84039 0.65385
267 1 52.9244 35.6703 54.3133 1.47653 4.27582 -1.37665 -0.523481 -0.566835 -0.420479
268 1 29.7332 32.3694 34.5324 -0.946209 5.9336 1.32022 -0.209715 -0.00109072 -0.658833
269 1 46.2392 13.3572 44.9418 1.78808 0.111393 1.03126 0.178052 0.242989 0.111761
270 1 46.9443 26.9912 28.7977 1.76673 -3.34416 0.976715 -0.854802 -0.069013 0.113025
271 1 9.55717 29.2393 45.3636 2.71334 -1.45245 1.74047 -0.102265 0.253344 -0.63781
272 1 27.1837 38.3734 13.1319 0.927743 0.848019 -0.36254 0.0641385 -0.118265 -0.105118
273 1 19.8999 30.0503 52.4194 -0.473231 1.62075 -1.74216 -0.892978 0.56803 0.304135
274 1 14.9684 -0.233999 53.1232 -2.31579 -2.44575 0.892012 -9.87391e-04 0.0218399 -0.227177
275 1 26.0893 10.0005 53.4242 0.883701 0.803486 -1.86479 -0.659138 0.223132 0.258748
276 1 2.26975 39.3336 37.4152 0.270184 2.7969 -0.512689 0.147825 -0.295139 0.857518
277 1 16.8801 51.5433 33.8612 1.80113 -0.789067 1.44162 0.311934 -0.40652 -0.0948058
278 1 6.61549 -0.484964 45.2938 0.242217 2.11085 -3.47811 0.385702 -0.346589 0.108551
279 1 38.5268 52.3977 14.1648 -1.6116 -3.53247 1.65525 0.33274 -0.680344 -0.362572
280 2 25.8105 9.20514 18.6666 3.16176 1.9298 0.500285 0.0878652 0.32174 -0.571766
281 2 41.4016 23.8956 51.7012 0.704689 -0.177915 -0.503303 -0.129073 0.558191 -0.383614
282 2 17.0945 42.801 38.2342 -0.879828 -0.3997 -0.317346 0.643632 -0.635891 0.420076
283 2 44.7408 -1.43937 10.8541 0.903009 0.176232 1.60631 -0.207235 -0.562236 -0.676652
284 2 18.8162 52.0855 19.8241 -2.23996 -0.204224 -1.90201 -0.117565 0.135985 -0.424606
285 1 48.166 5.99855 36.2838 -0.143309 1.99232 2.42743 -0.276219 0.300155 -0.265179
286 1 20.0972 56.0814 13.6517 0.83078 1.60851 1.04927 -0.207535 -0.440513 0.590138
287 1 45.2474 47.8654 22.2629 -2.7879 -0.644889 -1.61761 -0.492711 0.508344 -0.423555
288 1 13.4921 43.471 44.7927 1.17977 -2.73797 0.13127 -0.347183 -0.814501 0.276411
289 1 2.4997 8.16175 29.4208 -0.383498 0.0981113 -1.19118 -0.616902 0.202183 -0.0359136
290 2 -1.05413 45.7619 3.00948 -3.12798 -2.92663 1.19284 0.14276 0.0353999 -0.260077
291 2 17.1299 36.7049 23.9166 2.30648 -0.828724 0.733421 0.157267 -0.424242 -0.488414
292 2 13.6222 -1.70682 22.7928 -0.360024 -0.0938032 2.21507 0.824936 0.718903 0.365174
293 1 3.57494 51.0733 3.51064 -1.74757 0.336366 0.519418 -0.0950543 -0.885977 -0.368668
294 1 34.4774 44.6443 6.65703 0.495084 -0.505824 -0.760227 0.00995422 0.365256 -0.186802
295 1 13.4726 17.8 12.1804 1.35084 -3.62521 -1.1365 0.154382 -0.0877892 -0.0533364
296 2 23.2785 44.8699 8.44846 1.71196 1.66687 0.27621 -0.272418 0.357027 0.317451
297 1 29.8003 18.6909 49.689 -0.374186 -1.45708 3.56977 0.469897 -0.697784 -0.409398
298 1 38.3084 13.5969 45.4471 -0.350386 -1.19072 1.89888 -0.274655 0.0784923 0.338359
299 2 9.7396 9.73486 22.2704 0.877358 2.117 0.616909 0.102259 -0.0317433 -0.230007
300 2 52.3342 37.8293 6.21357 1.77751 -1.83543 -0.914951 -0.0258267 0.0801511 0.585159
301 2 0.914723 4.85337 -0.989528 1.21784 -1.93306 1.33623 -0.351503 0.646284 0.709185
302 2 1.13221 47.5053 49.2531 -0.49282 -0.150712 -1.49817 -0.0270327 0.652636 -0.118892
303 2 39.3941 3.58889 28.62 1.46178 2.49491 -1.48627 0.0510083 -0.690078 -0.499168
304 2 55.749 49.1589 34.5023 1.09861 -0.29543 0.243019 0.92667 -0.825743 0.102113
305 2 23.5829 -0.108272 -1.12 -2.00033 -1.54689 0.916075 0.0848446 -0.664065 0.0842083
306 1 25.6719 41.0299 22.1471 0.71384 1.36006 -2.3408 0.63658 -0.40653 -0.176879
307 2 35.1443 6.94698 39.4951 -2.19162 -1.50568 -0.697445 0.337118 -0.275562 -0.34845
308 2 3.65895 53.1092 7.09454 -1.1115 -2.67261 -2.65729 0.0600702 -0.384459 0.364389
309 2 13.2139 32.6877 9.85037 -2.19217 -0.310027 0.69244 -0.0498773 -0.338307 0.163337
310 1 40.1231 5.77297 8.18678 -0.222898 0.790064 0.92239 0.0919494 -0.418612 0.140539
311 2 37.9545 43.4783 20.0619 -0.404507 -0.981378 -3.7253 0.372105 -0.0717613 -0.503755
312 1 37.8476 6.43786 53.1695 -0.33974 -0.27966 -2.38971 -0.198386 -0.234761 0.165984
313 1 21.6272 5.17529 49.3617 2.85036 -3.81565 1.22163 -0.0762907 -0.305186 0.163729
314 2 54.1003 23.7625 19.4157 -1.51891 2.85836 1.19538 0.51873 -0.0270809 0.295814
315 2 19.6676 17.5248 49.1031 2.57543 -2.23951 -1.92498 -0.395131 -0.612289 -0.513798
316 1 -2.27278 55.3996 10.0446 -0.632668 -0.538163 -0.184587 -0.383984 -4.90469e-04 0.293842
317 1 9.75727 21.3254 45.7091 0.221548 -2.67024 3.2829 -0.337524 -0.538086 0.174863
318 1 -3.48197 -2.22279 41.8854 -0.640194 1.12135 -1.2276 0.345673 0.0295701 -0.156567
319 1 13.1679 52.6836 30.6697 3.52965 -4.88805 -2.83495 0.523664 -0.191409 -0.948601
320 1 16.2141 45.4268 29.1273 1.46281 1.65721 -0.544623 -0.0539045 -0.297241 0.12798
321 1 15.9992 15.3148 20.2397 4.23362 -0.879524 3.3309 0.0147116 0.326013 -0.851277
322 1 6.2652 47.1144 18.1652 -1.99961 -1.21983 -1.69337 0.0418487 0.0781189 -0.0685099
323 1 1.52735 41.2667 42.4495 -0.193436 0.201785 0.107512 0.465639 -0.362734 0.155529
324 2 12.4364 28.8475 16.3006 -1.31931 -1.25037 1.74706 -0.397561 0.620953 0.238581
325 2 26.07 46.4253 7.81814 0.957283 0.401689 -1.17433 0.0249553 -0.241679 0.328218
326 1 43.6326 33.9637 15.9874 2.75324 -1.95341 0.805591 0.185834 0.381257 -0.601596
327 2 46.3119 38.4369 11.3758 1.04247 0.151651 4.04407 0.86162 -0.426083 -0.174884
328 1 16.8377 12.4689 23.7167 -1.18245 0.342525 0.725331 -0.524772 0.073496 -0.0108145
329 1 31.8377 4.7453 20.2054 2.29781 -1.78827 -2.22699 0.610924 0.382745 0.013594
330 2 20.13 24.7671 15.0942 -1.23627 -3.20601 -0.452695 -0.123003 -0.204235 -0.405735
331 1 32.4538 -2.34229 2.0839 -1.88453 -1.67923 -1.07696 -0.0595536 0.073854 0.305103
332 2 36.2729 54.7241 24.6912 -3.71095 1.25481 1.25765 -0.00370925 -0.374399 0.232786
333 1 27.487 52.7729 5.43925 3.49479 -1.64592 -1.9361 0.471167 -0.014389 0.168011
334 1 38.9586 51.5917 44.5527 -0.0781865 -2.1541 -2.40402 0.132533 -0.147627 0.00500088
335 1 49.3432 52.6256 -1.6101 4.2487 -0.136616 2.57626 -0.453442 0.102462 -0.0953848
336 1 45.2812 19.5301 13.0216 1.31763 0.0416995 1.83046 -0.365445 -0.140543 0.240287
337 1 -3.01142 -2.41247 55.9632 -2.40054 4.75508 -2.50773 0.279408 -0.46419 0.403124
338 1 18.4937 48.5559 47.6004 -0.670091 0.810468 -2.7371 -0.129308 -0.0997315 0.0123838
339 1 19.5683 18.5081 8.56512 4.30338 0.225664 -3.04131 0.0183132 -0.264152 -0.373821
340 2 0.309151 37.7944 16.7759 1.81979 1.40822 1.30421 0.387457 -0.400562 0.294236
341 1 49.6066 48.2151 55.3652 -2.61346 1.60478 1.62728 0.350706 -0.0910586 -0.534563
342 1 14.2236 48.9191 40.5612 -5.63932 -0.59169 -0.434695 -0.374378 0.479189 0.382603
343 1 23.0046 28.6084 49.4633 0.97453 0.351657 -1.4824 -0.39474 -0.0403474 0.113782
344 2 31.2576 8.16658 31.0091 3.00276 -0.197163 -0.412603 -0.219163 -0.456152 -0.0286329
345 1 20.1446 9.38557 16.6333 -0.833412 -1.68511 -2.07786 -0.020049 0.0785809 0.00351478
346 2 40.4397 36.0987 4.60723 -1.3232 1.92717 1.60934 -0.0817503 -0.340143 0.0100856