ITEM: TIMESTEP
22000004
ITEM: NUMBER OF ATOMS
13500
ITEM: BOX BOUNDS pp pp pp
-3.69005 56.19
-3.69005 56.19
-3.69005 56.19
ITEM: ATOMS id type x y z vx vy vz fx fy fz
1 1 26.0547 54.8945 24.4226 3.08924 -2.3518 -4.18061 -0.194493 -0.563327 -0.248509
2 2 42.4972 36.7715 37.0493 0.669198 -1.00439 -2.29172 0.185223 -0.170298 -0.186613
3 2 44.3695 24.9178 17.8966 0.0626252 1.40779 -2.71514 0.0577388 0.728585 0.0166028
4 1 53.9043 13.2733 54.689 -0.381014 0.576876 -0.0539207 0.217194 0.491802 -0.205974
5 1 30.7741 28.6005 25.9002 -0.880292 -1.40985 -0.138295 -0.237026 -0.53428 0.184734
6 2 38.499 42.2315 52.6709 1.58797 -0.788777 0.711157 -0.191496 0.0969784 0.260738
7 1 43.8714 29.5006 16.3166 2.30783 -0.43854 1.58068 0.174633 0.922842 -0.0572789
8 1 1.91206 -0.609883 42.7456 5.07355 -2.44796 0.587159 0.240533 0.324532 -0.366244
9 1 51.4082 28.643 17.3208 -1.68982 -1.46781 0.523971 0.144996 -0.497544 0.19972
10 1 33.3809 53.1272 14.5966 -1.39766 0.730263 -1.75908 -0.0113202 -0.104975 -0.353115
11 2 33.025 43.5331 55.2042 -1.79027 1.71696 -1.1238 -0.263015 -0.290784 -0.0384169
12 1 1.64731 47.9491 -1.78892 -0.553663 -0.254422 1.45019 -0.122708 -0.0568158 0.051852
13 1 30.1653 6.18577 3.0172 -1.58185 -0.904501 -1.8024 -0.0876607 -0.0624934 0.0523161
14 1 13.2821 32.4127 36.4059 -1.70188 1.77775 2.55491 0.0763542 0.291701 0.17936
15 1 35.889 3.19486 48.1283 0.531782 -0.744827 -1.28594 0.429134 0.120407 -0.265696
16 2 45.4672 21.4064 21.7496 2.22919 -4.48097 1.47868 0.261278 -0.041423 -0.225336
17 1 7.66284 1.87277 43.4631 -0.0378802 -2.14425 -2.8482 0.233159 -0.536991 -0.371266
18 1 52.7836 29.9048 42.7286 2.40516 -0.29685 1.96278 0.289965 -0.42257 0.0260993
19 1 42.8631 15.7136 45.064 -2.50904 0.135227 1.33117 -0.0155418 0.675067 -0.587427
20 1 20.0858 9.85741 4.0979 0.419004 -2.40803 0.497505 0.252177 -0.247968 -0.107779
21 2 49.1847 18.4859 41.4486 -0.736218 2.09333 -1.61631 -0.0766148 0.342105 -0.120151
22 1 54.7346 7.33145 2.03011 1.13016 -1.41099 2.20247 -0.0624411 0.436203 -0.254482
23 2 24.1569 1.61069 3.11781 -0.0730876 1.25735 -0.489873 -0.029833 0.536787 0.125511
24 2 32.1483 52.0468 54.7717 1.84297 -0.93338 0.980236 0.371035 0.29128 -0.0740504
25 2 46.8265 14.5319 31.5383 -1.27652 -0.875673 -0.356306 0.686329 -0.0648569 0.658519
26 1 -0.428783 27.1854 -1.11661 -0.899973 -1.37265 0.925042 0.0348517 -0.0405523 0.217896
27 1 43.7038 0.952201 40.2577 -3.69237 -0.716046 0.0275429 -0.130777 -0.77122 -0.664462
28 1 28.6826 -2.00301 32.5656 -1.48902 0.889119 1.39933 -0.529319 0.230277 0.0940401
29 1 0.368947 33.2868 13.1651 -1.49587 -0.0571208 -1.44598 -0.331674 0.26018 0.98915
30 1 16.7963 55.7831 0.822023 -2.51499 1.50476 1.64537 0.163773 -0.134015 -0.312605
31 2 0.0267268 54.3322 18.2564 1.3109 -0.348085 0.573317 0.180083 -0.26404 -0.244902
32 1 45.7209 48.3719 26.8532 0.712903 0.690734 -3.38899 0.0446864 0.223051 -0.410376
33 1 9.41764 20.6528 29.0658 0.711197 1.66796 -0.058402 -0.0702013 0.279725 0.0467833
34 1 44.8216 21.1773 29.7991 2.24558 -2.8057 0.306127 -0.0198719 -0.180155 0.202094
35 2 34.8333 -2.77807 20.485 1.75832 1.8088 0.350428 0.17802 0.521315 0.215241
36 1 39.1582 36.5124 7.16625 -3.33129 0.00332178 -0.39708 -0.123492 -0.43119 -0.0412124
37 1 -1.17032 3.0775 31.5638 -1.27102 1.11755 1.15934 0.112356 -0.481669 -0.994149
38 2 49.8128 4.45724 49.1796 -0.0969947 0.673817 2.15441 0.275832 -0.292017 -0.470649
39 2 24.9197 34.7141 51.1975 -1.21484 -3.556 -2.18368 0.124832 0.301625 -0.329619
40 2 51.0503 38.1794 40.3808 1.43787 -1.49483 -0.595631 0.48883 0.857722 0.0477484
41 1 8.66633 23.4917 19.9645 -0.287506 -1.9465 3.05489 -0.298586 0.181019 -0.100861
42 1 -2.79221 54.9229 38.4174 0.436227 2.2759 -1.09912 -0.134839 -0.42034 0.214557
43 1 33.5063 3.69533 48.3215 -1.33732 -2.57895 1.56574 -1.15694 -1.16011 0.518436
44 1 46.5833 19.3762 15.1692 -2.2679 1.13635 0.666309 -0.280477 0.250923 0.210228
45 1 23.145 33.8538 53.3567 -0.677808 0.879849 0.668588 0.570748 -0.364708 -9.98361e-04
46 1 37.6511 40.1028 -1.0178 3.01276 1.0461 -3.36044 -0.400602 -0.487333 0.199363
47 1 46.1204 10.8945 14.8301 3.32388 -0.521571 -1.95074 -0.0740466 0.364723 0.396992
48 2 12.3071 16.4917 19.3971 0.922939 0.920429 -1.00124 0.0569642 0.544755 -0.372586
49 1 7.9023 30.4057 1.0147 1.86572 0.250501 -1.74933 -0.127119 0.861106 0.24524
50 1 34.4792 4.5706 14.4338 -5.84431 3.27717 2.17356 0.544634 -0.185929 -0.483458
51 1 12.3244 32.4492 53.0244 -0.77757 1.66829 -1.65253 -0.277829 -0.306756 0.0401597
52 2 30.4178 29.4355 34.8425 0.939331 0.565006 3.90658 -0.102907 0.735561 -0.266087
53 1 35.9961 37.0987 11.2987 0.682591 -1.16169 1.44409 0.0423195 0.753198 -0.361771
54 1 34.7033 1.47574 3.9412 -0.454634 1.22477 -1.27685 0.418219 0.424176 0.128412
55 1 33.9428 -1.63229 16.8851 0.262334 0.611696 2.37406 0.854446 -0.480929 -0.169818
56 1 26.8199 26.1978 40.0294 -2.87141 -0.300697 -1.57453 0.0431201 -0.141032 0.710248
57 1 -2.73645 50.8209 41.4696 -0.811206 -0.483237 1.432 -1.14195 -0.103525 -0.165866
58 2 45.313 22.2181 -1.53016 -1.6073 1.48902 0.936071 -0.618803 -0.0944029 -0.149511
59 1 21.2317 -2.32153 36.3057 0.823239 1.03024 -1.85665 0.597776 -0.425919 -0.0706882
60 1 12.757 6.75949 55.1621 2.73569 2.9582 0.30254 0.617347 -0.151144 -0.143043
61 1 35.8271 31.0569 33.3028 -1.20161 -0.640725 0.696595 0.0231495 0.16559 -0.214576
62 2 17.7338 48.0943 37.8001 -1.88356 0.21367 -1.84341 -0.021772 0.219327 -0.323568
63 1 41.7837 9.7078 24.2945 -1.32377 -0.870039 0.205175 -0.826487 1.46918 0.142649
64 1 8.8321 5.57587 10.5308 1.49503 -1.16242 2.01536 -0.0784515 0.652484 -0.285636
65 1 8.2497 29.589 51.404 1.76358 4.51379 -2.13807 -0.34188 0.349756 0.031597
66 1 18.458 53.5293 46.2857 -2.01659 -1.98103 0.294343 0.236408 0.616959 -0.171005
67 1 21.1158 12.5355 54.3643 0.315819 -0.331101 0.651952 -0.0860754 0.894678 -0.665832
68 1 1.98081 22.0369 8.01855 -0.199209 2.48778 1.1759 -0.0470834 0.35177 -0.42034
69 1 21.7028 48.3127 53.6705 1.71023 -0.053355 0.540075 -0.353673 -0.6181 0.00662545
70 1 27.7432 49.3965 23.1654 -1.0071 1.72421 1.9435 0.214317 0.124382 -0.644718
71 2 41.5038 26.3586 4.34924 -1.52019 1.47861 -3.87053 -0.464475 0.0419641 0.190971
72 2 47.7933 28.9253 50.4673 0.30208 1.21422 -0.00310949 -0.521847 0.494523 0.071473
73 1 8.41392 11.3403 27.8022 2.13052 1.88925 -1.77321 -0.164574 -0.761718 0.155687
74 1 36.3454 8.3003 -3.18606 -0.117349 -0.892544 1.13517 0.204089 -0.271797 -0.582434
75 1 36.4148 22.8683 -3.07221 -2.17217 -0.609813 -0.505294 0.270786 -0.195262 -0.0447861
76 1 18.6261 5.57264 38.5595 -1.67763 0.099903 0.538275 -0.261253 -0.441276 0.421527
77 2 14.9578 19.0273 -2.47175 -2.33904 0.418501 -0.616394 0.018773 0.177494 0.0850199
78 1 38.7158 -0.610131 49.2691 -0.451522 2.74668 0.309039 0.895813 -0.0282871 -0.458604
79 1 0.951816 39.1138 6.7361 1.41376 0.697163 -2.19017 -0.0132138 -0.0230577 0.191759
80 1 39.5879 39.8309 -2.88573 1.40944 1.74824 2.2785 -0.135468 0.604858 0.102452
81 1 28.0815 36.2237 -0.220841 1.00898 -0.179837 -1.50371 -0.496272 0.540529 -0.218709
82 1 48.6797 -0.27877 38.7212 1.3434 1.46744 -0.531676 0.364175 -0.0593099 -0.2159
83 2 52.5368 46.9697 13.9146 0.558138 -3.71193 1.66718 0.716148 0.0155777 -0.29246
84 1 45.3854 7.60997 39.5913 1.03686 -0.587749 1.74806 0.371956 0.162732 -0.328581
85 1 41.0323 50.4152 -0.891692 0.700627 -0.538665 -2.31326 -0.265414 0.0809203 0.525979
86 1 39.3689 15.5307 7.15419 -1.66996 -0.316191 -0.303098 -0.255098 0.599825 -0.16395
87 1 21.7561 3.2055 44.5439 -0.662947 -0.241683 -0.993938 -0.300093 -0.100642 -0.00747107
88 1 -2.639 13.4148 6.07886 2.47835 -0.299897 0.172748 -0.5462 -0.598632 -0.0187432
89 1 13.3264 49.9171 33.7294 -0.594717 -1.0365 1.45257 -0.56102 -0.823578 -0.191941
90 1 45.4885 48.2412 32.3124 -0.471031 -1.72007 -2.44627 0.279733 0.562995 -0.274339
91 1 21.0388 29.8861 4.29945 4.68214 -1.31826 0.0499684 -0.110088 0.290529 0.777914
92 1 55.7685 -0.376962 40.1387 4.1579 -0.960181 0.179501 -0.274405 0.0428344 -0.269761
93 2 19.8128 47.4608 33.0898 0.8722 -1.18785 -0.34402 0.107213 -0.121402 0.19445
94 2 4.89062 47.5736 30.2244 0.883468 0.734198 -0.897133 -0.158829 -0.519559 -0.00893811
95 1 52.0073 51.4679 29.0438 0.136028 0.727972 1.0126 -0.559465 0.0138285 -0.410486
96 1 43.2363 -3.3199 37.9735 2.30706 1.66376 0.743142 0.123084 0.470611 0.452642
97 1 56.0998 28.0976 20.8245 2.33536 -0.341133 -0.159238 -0.256384 -0.298872 -0.484301
98 1 11.3186 20.9906 15.9584 -2.89091 -3.12084 -0.636417 -0.351831 -0.54701 0.239703
99 1 8.64785 33.8774 26.8672 -0.529375 -1.48674 -1.17193 0.569253 0.280432 0.155297
100 2 54.7911 54.6875 11.8742 -0.546996 2.43437 -1.42264 0.277094 0.376716 0.503521
101 2 6.28296 11.0432 15.4646 0.042167 1.48708 -0.175221 -0.136907 0.360494 0.378054
102 1 43.1153 34.7701 54.0649 -1.91461 1.06715 -1.23815 -0.186153 -0.0632206 -0.578917
103 1 7.37282 52.104 5.15923 1.49352 -0.37337 0.505037 0.668124 0.490818 0.348399
104 1 30.5144 40.5247 37.0909 1.24512 -0.457802 -2.75762 0.0997531 -0.13865 -0.168039
105 1 9.45063 41.0392 45.5807 -2.23807 -1.26865 1.51783 0.161353 -0.667236 -0.110166
106 1 7.62807 26.2227 4.73778 -0.482533 1.0925 -1.17959 0.105616 0.167342 -0.666352
107 1 26.1197 7.49925 24.9969 -1.12422 1.01757 -3.52511 0.0370411 0.465883 -0.11481
108 2 0.671195 33.549 40.0352 2.18372 0.46378 -4.32664 0.54843 -0.105407 -0.311922
109 2 53.4458 -1.05616 28.746 0.866876 -0.39033 -0.781949 -0.0787376 0.388758 0.319118
110 2 32.7839 21.7507 7.35328 -1.26628 -2.06446 -1.20908 0.101817 -0.907946 0.130911
111 1 42.4327 44.0841 24.6579 -2.92161 -1.87316 2.79538 0.707318 0.179289 0.33444
112 1 17.4949 10.3913 40.5612 3.17272 2.10235 1.88649 0.309996 -0.321107 0.00413078
113 1 4.60526 56.1705 44.1972 1.87959 0.579256 -1.01783 -0.436239 0.493485 -0.0224413
114 1 0.956163 51.8028 34.7253 2.39996 1.28705 -1.02449 0.823089 -0.678403 -0.488129
115 2 53.6065 9.26476 43.821 -1.57374 0.591292 -1.85379 0.155701 0.755963 0.229271
116 1 11.8394 36.1208 34.1728 2.05014 -2.11644 0.367852 -0.45393 -0.28852 -0.552361
117 1 33.3924 29.5209 0.477556 -1.46959 3.08198 2.39022 0.437225 -0.234234 0.0154329
118 1 35.9431 -2.68706 43.3887 -0.913745 2.27413 -1.48397 0.10778 0.347694 -0.205543
119 1 -0.233854 49.0918 38.2609 3.27341 -1.10403 0.687603 0.243027 0.22171 0.846338
120 1 49.7851 1.59954 -2.49181 -3.03306 0.138814 -1.02316 -0.160046 -0.116779 -0.543477
121 1 47.5027 13.4892 34.1977 -2.26643 -0.53444 1.76114 0.3843 0.326738 0.49655
122 1 18.8365 22.5609 32.3888 0.59885 -3.50308 0.805515 0.478268 -0.0931794 -0.0142591
123 1 25.8833 25.7908 22.889 -1.14297 -0.579375 -1.12285 0.340154 -0.288636 0.0231544
124 1 10.3637 54.1405 25.9498 3.84182 2.18394 -2.83207 -0.345504 -0.532695 0.00797343
125 2 7.60927 27.7736 46.6484 0.105557 0.56696 -1.44981 -0.227605 -0.362367 0.24669
126 2 32.2264 22.6809 34.4999 1.82834 1.14836 0.469527 0.0298728 -0.471926 -0.208108
127 1 22.9241 21.7 34.951 -2.5768 -2.01275 -2.00048 -0.706073 0.129458 0.463074
128 2 54.3305 40.0765 7.1458 1.10842 0.220424 -1.59995 -1.37628 -0.0235934 0.0796334
129 1 32.0523 55.4542 43.9917 -0.917274 -0.742479 1.9753 0.318555 -0.463346 -0.393875
130 2 11.185 55.4047 40.9157 0.142658 -1.38333 -1.01645 -0.176342 -0.194564 -0.389964
131 1 11.6484 23.8755 -2.05262 -2.73749 3.00195 -1.10704 0.19019 0.487976 0.194919
132 1 22.3462 36.9571 55.2613 -2.8707 0.0403649 0.320802 -0.196912 -0.230956 0.712261
133 2 3.82506 24.8609 42.1892 0.504388 2.51654 -1.59807 -0.104943 -0.178726 0.243126
134 1 18.6295 39.0348 24.5029 -1.23312 2.16 -0.830677 0.157064 -0.173536 0.466313
135 2 18.6782 3.59694 54.1316 0.888521 -2.45085 -0.0418846 -0.620483 0.584717 -0.204993
136 1 53.3611 49.8284 27.8556 1.06012 4.14327 0.0806229 -0.134033 0.494848 -0.59671
137 2 34.4611 50.0735 20.5106 -0.893605 0.517245 1.01797 -0.346733 -0.347065 -0.127168
138 1 24.1118 22.8657 39.8851 -2.14143 -0.39895 0.100886 0.89566 -0.127697 -0.239891
139 1 -0.852096 32.9035 33.8513 2.3979 -0.28322 2.05231 -0.131309 -0.327365 -0.0112099
140 1 53.5647 42.2679 37.9428 0.748767 0.210734 -1.65467 -0.840947 -0.206392 0.0282627
141 1 20.9005 -0.661594 27.0281 1.08383 -0.423008 -1.70155 0.39244 0.372043 -0.263641
142 1 14.7882 5.24794 41.1491 0.46174 1.12863 2.51709 0.587649 0.00506028 0.107055
143 1 15.1632 22.5082 29.6404 0.549232 3.75356 0.190399 0.208794 0.39232 -0.372762
144 1 26.7078 51.3638 38.0536 -2.37138 -1.31648 1.12997 -0.370112 0.227754 -0.462001
145 2 26.1194 -0.0346265 5.02176 -0.00729749 -1.95107 0.0477893 0.600434 0.384835 0.214556
146 2 55.4107 36.0654 26.2087 -0.928423 0.876992 -1.51672 -0.0569055 -0.244279 0.0541999
147 2 44.6428 53.1466 31.9524 0.283389 -1.14099 -0.888479 0.568569 0.115827 -0.22276
148 1 16.5908 14.7277 54.1491 0.0302511 1.45685 -4.75212 -0.077008 -0.200225 0.35217
149 1 -1.07621 32.0247 6.91901 -1.21485 0.352511 -1.11335 -0.138336 -0.677908 0.031222
150 2 24.6109 29.7726 12.2237 3.55167 0.82149 3.81617 0.117291 -0.250198 0.313276
151 1 11.8545 5.50356 19.5335 -1.37094 4.0817 -0.95827 -0.494184 -0.64198 0.0336044
152 2 42.7333 34.9873 13.5462 0.230822 2.08674 2.87185 0.830191 0.0026968 0.091715
153 1 14.1352 36.5738 37.8274 -0.103729 -1.42728 -0.168471 -0.335491 -0.0526433 4.76686e-04
154 2 20.7765 10.6391 18.94 0.0276344 -0.342597 -1.85899 -0.351549 -0.124951 0.10797
155 1 54.8008 0.921773 12.905 -1.88873 2.11712 -0.10101 0.0225401 -0.0937384 -0.0498648
156 1 55.7448 31.9001 3.49244 1.83594 -0.345262 -1.4368 0.546314 -0.19712 0.0690179
157 1 42.8655 53.5074 29.6205 -3.32097 -0.61542 -2.43705 0.38106 0.288429 0.186554
158 1 18.0821 32.3724 25.9998 -1.20614 -1.37399 -1.1458 -0.694192 -0.540596 0.710834
159 1 40.0979 22.8221 47.3785 -4.16867 -0.0156889 -1.98444 -0.0178659 0.0619787 -0.407215
160 1 45.0118 29.5798 45.7646 -3.66191 -3.61191 0.151425 0.0768533 -0.199399 -0.229021
161 1 37.4133 39.9152 23.7786 3.90763 2.7185 -0.632782 0.626361 0.304462 -1.05767
162 1 48.1638 51.9135 42.2362 0.695177 -0.56659 1.06129 0.348286 -0.389019 -0.155191
163 1 38.982 9.43013 -3.21718 -0.839278 -0.628346 -1.53599 -0.355773 -0.297327 0.117752
164 1 37.7925 28.0011 25.2543 0.9726 3.36634 0.171173 0.15748 0.107242 0.196336
165 1 6.67817 11.0435 10.7187 1.08138 -0.782856 0.00780222 0.160091 0.131553 -0.270255
166 1 16.5757 42.2677 21.496 2.34854 0.177175 -0.704018 -0.490641 -0.139261 0.0759345
167 1 55.3554 49.7273 37.188 3.42892 -0.383655 -0.690881 0.456548 -0.0331793 0.00764472
168 1 18.416 44.5391 8.5646 2.99953 1.05455 2.96995 0.511874 -0.879442 0.215692
169 1 42.0155 41.4186 38.3163 1.53727 1.57272 -0.0884419 0.174231 -0.269964 0.385289
170 1 12.644 26.2344 46.1786 -3.6406 0.0134446 -0.450621 -0.317317 -0.169244 -0.555911
171 2 30.0175 25.5321 32.2684 -2.11988 -0.277405 1.00565 0.0385721 0.153421 -0.150512
172 1 -3.57842 5.20564 34.3479 0.266272 0.350102 0.59665 -0.297604 0.0756981 -0.613314
173 1 52.898 -1.35118 -2.39734 -0.975709 -3.98027 -1.79442 0.169425 0.141197 0.519417
174 2 22.2052 2.30748 0.607882 -1.55586 0.677948 1.48996 0.970374 -0.292116 0.0776518
175 2 13.5451 30.4733 38.2065 1.14123 -2.16827 -0.186848 0.632124 0.176442 -0.119624
176 1 24.3435 25.7914 2.54415 1.34748 -0.824798 -1.71076 1.06054 -0.121501 1.30425
177 1 47.5507 13.2028 -0.624365 1.24842 -0.556541 -1.72805 -0.532587 -0.00925812 -0.285876
178 2 8.70337 41.6404 39.6322 -1.2357 -1.239 -1.28722 -0.112463 0.018324 0.262226
179 1 8.77996 33.6337 35.9396 2.18044 -3.15936 2.35345 0.0352324 -0.278259 -0.226097
180 1 10.5995 5.30616 45.2149 -2.55657 0.0965136 -1.4309 -0.872802 0.628989 -0.473845
181 2 38.8593 -3.35846 1.48012 -3.36262 0.0932462 -0.774028 0.0747333 0.128723 0.232632
182 1 12.0675 28.9328 29.7648 -1.80738 -4.59343 -1.30716 -0.621357 0.162483 -0.36005
183 2 0.872449 49.5919 53.6932 -0.877086 2.88724 -0.828331 -0.453759 -0.00945581 -0.50921
184 2 35.708 5.50226 17.1173 0.668044 3.30691 0.41346 0.359229 0.198863 -0.413076
185 1 43.0428 -0.4476 -3.43936 -2.70675 0.633525 -0.0115603 0.569519 0.165585 -0.573048
186 1 53.6401 46.5294 20.4567 1.63986 -2.3296 -0.59413 0.136809 0.256391 0.220013
187 1 33.9455 49.8541 50.6642 -0.934187 1.11967 0.932141 -0.0320971 0.513564 -0.546815
188 2 5.47629 31.9139 2.00661 -1.18399 0.823199 -0.981092 -0.548354 -0.812699 -0.371315
189 1 14.3291 47.687 50.6308 2.40814 0.954218 2.46953 -0.714968 0.182893 1.00232
190 2 -2.95233 0.472818 49.5813 0.835983 2.23022 0.844831 -0.18672 -0.210695 0.718361
191 1 26.4331 9.78648 46.1432 -0.603978 0.386558 0.467482 0.491234 0.486472 -0.24895
192 2 24.4223 49.3621 38.8963 -1.10908 0.797352 -0.434147 0.330781 -0.00501262 -0.116431
193 1 30.8869 46.765 1.77809 1.71278 -0.265055 0.349123 0.240897 0.49991 -0.244227
194 2 43.3149 44.6128 47.787 0.748297 0.377673 2.57214 -0.207193 -0.099058 0.670433
195 2 18.7321 42.2301 32.2694 -1.91293 -0.431481 -0.929994 0.0453575 -0.255605 -0.509612
196 1 26.867 0.4683 7.49315 1.11092 -1.19628 -1.21198 -0.109716 0.0409226 0.0139597
197 1 1.92918 24.6291 30.709 -0.231762 -2.42397 1.83383 0.192193 0.187197 -0.418527
198 1 34.067 15.2038 41.92 -2.97653 -1.77644 2.18514 0.168612 0.157364 -0.160803
199 1 23.6586 -1.44768 12.8103 1.63695 -0.454648 0.870361 0.582869 0.0306271 -0.211708
200 1 38.6846 16.84 -0.261515 0.0552103 -2.63439 -1.23517 -0.109942 0.89176 0.867702
201 1 55.1493 5.12971 10.5738 0.408941 -1.3424 -1.02941 0.153225 0.0161785 -0.277247
202 1 46.8235 -0.84962 37.0371 -0.728793 1.5651 -1.4442 -0.0197275 0.044278 -0.119309
203 1 21.4995 0.172247 36.8953 1.1937 -4.37181 -1.60754 -0.589278 0.0784512 -0.298089
204 1 17.6192 38.3291 40.2196 -4.18839 -1.48772 2.13918 0.252319 0.322794 -0.0603467
205 2 13.8103 2.12175 54.069 0.947216 0.241724 -0.961506 -0.318262 -0.019181 0.00135835
206 1 48.4083 25.7485 27.2688 -3.76307 -0.0484165 -3.29186 0.642717 -0.0439004 -0.411157
207 2 0.505683 52.7176 6.84834 -1.30772 0.132982 -0.428564 -0.510015 0.376551 -0.398229
208 1 27.664 1.28435 -3.35698 -0.705997 -0.764889 -2.7244 -0.411851 -0.0878039 -0.326356
209 2 28.4261 9.62819 -2.83255 1.54115 0.385939 -1.95974 0.246107 0.416794 -0.347559
210 2 1.13886 28.7898 32.0117 -0.937346 -1.8393 -2.21504 0.0334131 -0.469694 0.33276
211 1 36.1662 17.2044 28.2335 2.6626 -2.50391 -2.81791 -0.328044 0.132711 0.112667
212 1 3.31809 23.0275 37.5311 -0.6951 -1.51014 0.0878374 -0.451234 0.157671 0.391684
213 1 4.96114 16.6918 0.602298 6.0814 -0.996725 3.93039 0.51272 0.046884 0.756482
214 1 51.6192 12.4986 19.2482 -0.928451 -1.98157 1.35984 -0.321412 -0.178382 -0.378278
215 2 4.57322 19.3071 19.6805 -2.13843 -2.77933 1.19783 0.0827307 0.00571597 -0.0844089
216 2 48.7288 39.73 33.398 0.938607 1.58867 0.813462 -1.0562 -0.629492 -0.513282
217 1 36.9908 13.8464 33.1945 1.04491 2.10363 1.41525 0.681328 -0.222767 0.655706
218 2 36.362 11.9067 44.4241 -3.76951 0.794556 0.452677 0.536391 0.0807811 0.481039
219 2 32.5227 50.1528 25.1204 -0.19859 -1.52403 -2.35234 -0.251112 0.707283 -0.35521
220 1 41.3999 5.27231 41.2221 2.24972 -0.0831186 -3.63514 -0.00221908 -0.720473 -0.0424104
221 2 51.5627 29.3068 53.9893 1.84586 0.184523 1.32177 -0.753948 0.278368 -0.0876638
222 1 43.8726 13.5856 44.3959 -3.71536 -0.675776 -0.406568 -0.506149 -0.361652 0.294571
223 2 18.7922 8.06072 52.5574 2.56753 0.459078 0.458269 -0.132078 0.294688 -0.733161
224 1 2.25909 17.6221 18.8611 0.802061 -0.276938 1.85616 0.234238 0.158442 0.116031
225 1 28.6597 50.5939 27.7386 -4.24543 0.964412 1.03019 0.595809 0.32002 0.270343
226 1 26.1408 48.9765 37.0861 -3.19406 0.185249 -1.85281 0.478768 0.032138 -0.243856
227 1 50.0049 30.1956 28.9704 -1.97389 -5.55547 1.02247 0.879996 0.106698 -0.370779
228 1 6.22881 2.43137 28.2884 2.48974 1.37901 0.299699 -0.00748075 0.279882 0.0848196
229 1 1.10044 50.8329 20.6239 1.73514 1.94721 1.15423 0.111801 -0.110969 1.31725
230 1 4.1392 6.41951 -2.59756 3.2356 1.16231 1.7769 0.685142 0.517158 -0.267145
231 1 45.9844 10.7499 28.1767 2.16232 -3.88664 0.0562978 0.508027 0.0284647 -0.224412
232 2 10.2335 2.52455 45.0816 0.113368 -2.5741 -1.2313 -0.604657 -0.0874806 -0.584223
233 2 16.4033 39.8574 45.8004 -0.37842 -2.74921 0.529572 -0.473086 -0.2146 -0.542555
234 1 38.3608 31.4885 8.73674 1.69657 -0.0116004 -1.43172 0.83703 -0.052081 0.398251
235 1 24.5058 45.8399 23.5716 1.1374 2.4018 -0.437249 0.279008 -0.191681 0.119358
236 1 14.8631 48.1141 8.4114 -0.371909 -1.49952 -2.90995 0.290298 -0.639825 -0.73668
237 1 52.221 -0.13367 46.9933 0.123181 -1.86265 1.69365 -0.166399 0.277253 0.0243941
238 1 -2.75426 12.7968 8.55133 -0.181005 -1.13244 1.69323 -0.278298 -0.672812 0.136081
239 2 7.64052 49.44 26.3166 -1.57766 0.599915 -1.73495 0.101093 -0.418387 0.156273
240 1 18.1593 40.1634 36.3238 0.865336 -1.606 -1.94696 -0.0777884 0.475966 0.175847
241 2 35.4786 -2.06829 25.2804 -0.939529 1.69069 -0.744948 0.333726 0.103423 -0.379754
242 2 34.8899 10.4962 42.1355 1.52475 1.88723 -0.306342 0.00635059 0.275693 -0.483217
243 1 38.1521 26.3536 27.3611 0.770124 -0.4964 -1.07635 0.33999 0.578581 -0.0939206
244 2 27.3299 -2.88194 23.7436 2.00386 0.0601817 0.365058 0.362216 0.0194327 0.796389
245 1 55.4717 55.4029 42.0633 -1.19726 -0.230243 -1.42965 -0.286378 -0.27435 -0.266726
246 2 24.5766 -2.93126 41.6149 -3.66303 -0.178804 -0.566951 0.678946 0.481214 -0.420358
247 1 46.8521 44.7517 24.4926 -1.32697 -0.701234 0.948502 -0.135206 -0.12859 -0.331309
248 2 40.7186 -2.64934 24.5331 3.31694 -2.46747 -2.43992 -0.0302613 0.328454 -0.542223
249 1 42.2818 31.4049 3.29771 1.14032 -0.952691 -2.14952 -0.49838 -0.567698 -0.163189
250 2 25.4608 39.7186 50.0876 -1.04738 -1.12048 -0.141419 0.394564 0.303299 -0.087839
251 1 4.17282 1.0085 -1.6868 -1.13509 4.1129 2.11465 -0.359375 0.244163 -0.220709
252 2 23.2937 41.1317 4.30085 0.912187 2.8841 2.02299 -0.409026 -0.109353 -0.283524
253 1 45.2715 37.4684 18.1497 3.06552 2.3329 0.227483 -0.0413627 -0.253473 -0.88177
254 1 55.1696 13.8492 34.6595 -0.381043 5.4034 -1.28008 -0.115387 0.348446 -0.0306708
255 1 35.6393 -3.67543 50.4977 -0.8872 0.553238 -1.36622 -0.292377 0.359023 -0.708096
256 1 32.3616 16.3816 6.74845 -1.07795 -3.02494 0.983945 -0.938083 -0.711317 0.10543
257 2 15.5599 10.6431 6.79267 2.23487 0.533015 0.585169 0.052596 0.226838 0.370897
258 1 -2.05416 42.4981 14.6385 2.53812 3.18537 -3.7114 0.343943 -0.176466 -0.0309562
259 2 46.1472 50.4937 33.4374 -0.618098 -0.294686 1.26199 0.372804 -0.0220513 -0.172805
260 1 -1.17696 10.9392 45.5337 -0.957644 2.41109 -1.20254 0.204858 -0.332768 0.945711
261 1 52.9888 52.7456 39.2836 1.17141 -3.73596 0.742401 -0.156049 0.321602 0.0657594
262 2 22.9292 1.39517 47.0301 0.905656 -4.00205 -0.947117 0.328541 -0.0968484 0.00725309
263 1 22.5983 20.5313 24.829 -0.74322 2.11262 1.69126 0.367498 0.6075 0.247382
264 2 49.435 34.7088 38.4441 -1.85503 -2.83172 0.998276 -0.437898 -0.425527 0.331462
265 1 13.7876 29.8081 43.4912 1.76573 5.03976 0.622213 -1.03443 -0.213188 -0.289134
266 1 12.7138 2.99473 36.5983 1.88365 -4.27526 2.85018 -0.188144 -0.774062 0.617439
267 1 52.9225 35.6769 54.3054 1.31041 4.08912 -1.49719 -0.550272 -0.601802 -0.394273
268 1 29.7306 32.3802 34.5333 -1.00387 5.91276 1.11631 -0.184191 -0.0500142 -0.666332
269 1 46.2393 13.3598 44.9405 1.83236 0.18612 1.06008 0.139891 0.251311 0.0932469
270 1 46.9439 26.9844 28.7992 1.49475 -3.35832 1.00222 -0.912646 -0.0729969 0.0693757
271 1 9.56554 29.236 45.3635 2.67038 -1.37025 1.53844 -0.141504 0.267448 -0.668846
272 1 27.1854 38.3729 13.1335 0.942076 0.806529 -0.390852 0.0438601 -0.142939 -0.0868246
273 1 19.8998 30.053 52.4113 -0.738824 1.78873 -1.6389 -0.864981 0.563056 0.351278
274 1 14.9658 -0.234142 53.1201 -2.30426 -2.42977 0.821509 0.043332 0.0479626 -0.224671
275 1 26.0909 10.005 53.4157 0.682619 0.867882 -1.78054 -0.653754 0.213131 0.269616
276 1 2.27462 39.3368 37.4125 0.310537 2.69473 -0.249898 0.122162 -0.337711 0.867625
277 1 16.8855 51.5371 33.8627 1.89193 -0.910518 1.40759 0.312923 -0.405699 -0.108552
278 1 6.6196 -0.476073 45.2835 0.360049 1.99723 -3.43524 0.394697 -0.371785 0.123446
279 1 38.5214 52.3857 14.1702 -1.50228 -3.72336 1.53678 0.364602 -0.629595 -0.394437
280 2 25.8169 9.21211 18.6688 3.17049 1.99221 0.375837 0.0608767 0.309305 -0.595653
281 2 41.4003 23.8958 51.6956 0.673271 -0.0609376 -0.583473 -0.153564 0.545249 -0.385697
282 2 17.0945 42.7971 38.2315 -0.742498 -0.529285 -0.231213 0.637784 -0.598947 0.388525
283 2 44.7393 -1.43419 10.8599 0.855659 0.0576101 1.4584 -0.222048 -0.556808 -0.689719
284 2 18.813 52.0805 19.8213 -2.25885 -0.175434 -1.98559 -0.107939 0.13224 -0.406169
285 1 48.1617 6.00624 36.2868 -0.22863 2.0725 2.33523 -0.288392 0.25744 -0.307387
286 1 20.0999 56.0791 13.6563 0.763422 1.46923 1.22441 -0.224464 -0.454377 0.579786
287 1 45.2383 47.8604 22.2602 -2.92947 -0.488002 -1.74044 -0.481229 0.516636 -0.409819
288 1 13.4967 43.4622 44.7897 1.06898 -2.97624 0.210936 -0.366061 -0.796293 0.250743
289 1 2.503 8.16524 29.4178 -0.567506 0.158463 -1.19939 -0.601857 0.197147 -0.0355511
290 2 -1.05547 45.7526 3.01596 -3.0912 -2.90737 1.13687 0.139999 0.0856982 -0.244686
291 2 17.1362 36.7013 23.9184 2.33233 -0.915109 0.62907 0.135587 -0.410692 -0.483919
292 2 13.6239 -1.70186 22.7979 -0.18372 0.0600359 2.28621 0.83621 0.735185 0.354483
293 1 3.57548 51.0693 3.51563 -1.77136 0.0679134 0.408177 -0.0872051 -0.879057 -0.357192
294 1 34.477 44.6401 6.65896 0.495224 -0.389685 -0.816607 -0.00182975 0.393093 -0.195983
295 1 13.4776 17.7943 12.1806 1.3952 -3.64029 -1.14929 0.15774 -0.0643661 -0.0474806
296 2 23.2824 44.87 8.45226 1.64634 1.73822 0.342171 -0.312862 0.353123 0.312622
297 1 29.7991 18.6892 49.6918 -0.232302 -1.66139 3.43073 0.460109 -0.670454 -0.455378
298 1 38.3055 13.5968 45.4476 -0.428708 -1.16643 1.99383 -0.246828 0.064301 0.315252
299 2 9.74433 9.74204 22.2723 0.896596 2.10293 0.56669 0.0981534 -0.0571543 -0.232416
300 2 52.3331 37.8236 6.21545 1.76219 -1.81099 -0.78663 -0.0820298 0.112791 0.610254
301 2 0.921612 4.85347 -0.981838 1.13683 -1.79076 1.48063 -0.389837 0.660158 0.685415
302 2 1.13571 47.5014 49.246 -0.495699 -0.0112758 -1.51849 -0.0105115 0.663944 -0.104728
303 2 39.3947 3.59778 28.6165 1.46849 2.34078 -1.58312 0.043085 -0.716631 -0.448543
304 2 55.7461 49.154 34.5013 1.29199 -0.469437 0.263154 0.926635 -0.827361 0.0935296
305 2 23.5794 -0.106789 -1.11326 -1.97359 -1.67899 0.930569 0.126514 -0.618542 0.0721137
306 1 25.6736 41.0298 22.1431 0.901754 1.23088 -2.38799 0.612743 -0.425379 -0.168342
307 2 35.1384 6.94736 39.4913 -2.11304 -1.55722 -0.767354 0.360832 -0.243699 -0.327797
308 2 3.66078 53.099 7.09274 -1.09558 -2.74093 -2.57145 0.0673373 -0.317984 0.392592
309 2 13.2119 32.6858 9.85472 -2.19702 -0.378124 0.724533 -0.0418107 -0.312689 0.154884
310 1 40.1202 5.77808 8.19189 -0.193876 0.656692 0.960667 0.0961521 -0.449217 0.125246
311 2 37.9517 43.4732 20.0554 -0.323662 -0.99481 -3.81727 0.384621 -0.0758665 -0.444584
312 1 37.8448 6.44077 53.16 -0.402221 -0.348674 -2.33245 -0.2185 -0.224325 0.176768
313 1 21.6337 5.17134 49.3601 2.81558 -3.89535 1.26914 -0.111564 -0.275817 0.167291
314 2 54.0924 23.7687 19.4194 -1.4056 2.84398 1.25615 0.521996 -0.0493488 0.304343
315 2 19.6739 17.5217 49.0951 2.48358 -2.36292 -2.02567 -0.42036 -0.602547 -0.479442
316 1 -2.26906 55.3933 10.0473 -0.746623 -0.536951 -0.0956201 -0.376536 6.51991e-04 0.290039
317 1 9.76056 21.3208 45.7122 0.117681 -2.82588 3.32144 -0.344059 -0.526955 0.127004
318 1 -3.47783 -2.21545 41.8801 -0.533845 1.12529 -1.26623 0.346182 0.0127408 -0.115997
319 1 13.1774 52.669 30.663 3.67447 -4.93009 -3.11093 0.48254 -0.156909 -0.91221
320 1 16.2188 45.4265 29.1257 1.44134 1.55965 -0.50585 -0.0663759 -0.321815 0.119729
321 1 16.0095 15.3151 20.2472 4.22363 -0.777142 3.05924 -0.0189584 0.336196 -0.891319
322 1 6.26479 47.1082 18.1632 -1.98084 -1.1913 -1.70917 0.0527724 0.0921972 -0.0603403
323 1 1.53152 41.2643 42.4469 -0.0526841 0.0891144 0.156593 0.459533 -0.377177 0.169628
324 2 12.4362 28.8447 16.3059 -1.40018 -1.11582 1.78813 -0.395393 0.626445 0.18663
325 2 26.072 46.4225 7.81915 0.960322 0.351505 -1.10061 0.0238119 -0.224913 0.345016
326 1 43.6351 33.9585 15.9906 2.802 -1.82987 0.619584 0.175711 0.404855 -0.61304
327 2 46.3106 38.435 11.3865 1.22053 0.0612867 3.99163 0.845463 -0.426026 -0.236983
328 1 16.8369 12.472 23.7186 -1.3362 0.365242 0.720471 -0.506098 0.0812677 -0.0106712
329 1 31.8414 4.74569 20.202 2.47355 -1.66584 -2.21612 0.581226 0.398366 0.0257066
330 2 20.1286 24.761 15.0952 -1.2576 -3.23862 -0.537961 -0.104737 -0.171338 -0.410748
331 1 32.4489 -2.34051 2.08616 -1.89825 -1.65249 -0.980296 -0.0583617 0.0779802 0.316527
332 2 36.2637 54.7215 24.694 -3.7019 1.17436 1.30213 0.0118548 -0.360772 0.214459
333 1 27.4939 52.7649 5.43916 3.62473 -1.64512 -1.87895 0.436454 -0.00429392 0.180634
334 1 38.9562 51.5829 44.5447 -0.0426756 -2.19165 -2.38957 0.100455 -0.131254 0.0553429
335 1 49.3474 52.6206 -1.6 4.09415 -0.108821 2.54285 -0.50366 0.0788021 -0.0874067
336 1 45.2803 19.5313 13.0277 1.20156 -0.00221021 1.89318 -0.380623 -0.14835 0.199858
337 1 -3.01089 -2.39798 55.953 -2.30886 4.5974 -2.37839 0.290124 -0.506232 0.413167
338 1 18.4938 48.5535 47.5911 -0.705204 0.776641 -2.72506 -0.111951 -0.111493 0.0271107
339 1 19.5781 18.5099 8.56209 4.29432 0.145701 -3.14177 -0.0153828 -0.259765 -0.332797
340 2 0.317507 37.7951 16.7802 1.90172 1.32064 1.36017 0.425998 -0.39895 0.262628
341 1 49.5973 48.2143 55.3631 -2.49705 1.57186 1.45645 0.378765 -0.102678 -0.568021
342 1 14.2144 48.914 40.5579 -5.72999 -0.442424 -0.321629 -0.30547 0.496324 0.35652
343 1 23.007 28.6086 49.4562 0.848446 0.339387 -1.44212 -0.422362 -0.0354275 0.130201
344 2 31.2627 8.16932 31.0075 2.94437 -0.29412 -0.418094 -0.27074 -0.465641 -0.0319607
345 1 20.144 9.38524 16.6308 -0.839174 -1.6571 -2.06891 -0.0300747 0.0815887 0.0252447
346 2 40.4345 36.1007 4.61432 -1.33645 1.85104 1.60556 -0.0712747 -0.340126 -0.0122863