ITEM: TIMESTEP
22000000
ITEM: NUMBER OF ATOMS
13500
ITEM: BOX BOUNDS pp pp pp
-3.70037 56.2004
-3.70037 56.2004
-3.70037 56.2004
ITEM: ATOMS id type x y z vx vy vz fx fy fz
1 1 26.0291 54.9202 24.454 3.28249 -1.57552 -3.79252 -0.0766469 -0.739502 -0.442616
2 2 42.4982 36.7826 37.0707 0.478808 -0.864212 -2.11047 0.272965 -0.18365 -0.283496
3 2 44.3755 24.9085 17.9155 0.0267607 0.802564 -2.71253 0.0272128 0.716268 -0.0769957
4 1 53.9179 13.2666 54.6982 -0.637589 -0.0060344 0.203337 0.195169 0.468364 -0.211729
5 1 30.7815 28.6099 25.9021 -0.574368 -0.716369 -0.369501 -0.272102 -0.615929 0.190751
6 2 38.4898 42.2436 52.6752 1.73855 -0.831558 0.492148 -0.12799 -0.0097876 0.26523
7 1 43.8598 29.5097 16.3002 2.11218 -1.52592 1.6302 0.177071 0.848061 -0.00190253
8 1 1.86422 -0.598209 42.7447 4.76367 -2.73553 1.04202 0.334303 0.109874 -0.364039
9 1 51.4311 28.6532 17.3145 -1.85256 -0.860384 0.263649 0.0962244 -0.514337 0.231636
10 1 33.3944 53.1302 14.6049 -1.35687 0.834437 -1.3073 -0.0746202 -0.057466 -0.407166
11 2 33.0405 43.5246 55.2231 -1.45602 1.87145 -1.10258 -0.561554 -0.0301265 -0.0299184
12 1 1.64256 47.9582 -1.80994 -0.358708 -0.145892 1.38113 -0.205431 -0.129608 0.0818947
13 1 30.1788 6.18582 3.02386 -1.43479 -0.837591 -1.8519 -0.173862 -0.0591866 0.00545491
14 1 13.2917 32.4021 36.3898 -1.80416 1.39388 2.35642 0.0689959 0.361028 0.177689
15 1 35.8903 3.19324 48.1449 -0.0517243 -0.80069 -0.969648 0.527319 -0.0383941 -0.266251
16 2 45.4568 21.4403 21.7356 2.0292 -4.39809 1.61169 0.248849 -0.237395 -0.0575225
17 1 7.65794 1.87867 43.4898 -0.350497 -1.38963 -2.32473 0.276119 -0.719516 -0.52047
18 1 52.775 29.9063 42.7187 2.00433 0.253264 1.90507 0.396735 -0.478972 0.0930769
19 1 42.8888 15.7122 45.057 -2.46469 -0.691697 2.02334 -0.0905618 0.67251 -0.519624
20 1 20.0816 9.86979 4.08568 0.0811053 -2.08213 0.654126 0.306432 -0.316508 -0.142845
21 2 49.1983 18.4677 41.4664 -0.684646 1.75288 -1.52202 -0.0609971 0.498038 -0.132719
22 1 54.7351 7.33837 2.00293 1.15923 -1.9428 2.48756 0.0321018 0.408182 -0.183247
23 2 24.1565 1.59382 3.11419 -0.00213579 0.848678 -0.598422 -0.135262 0.445761 0.121555
24 2 32.1369 52.0641 54.7734 1.48574 -1.17263 1.04052 0.50256 0.249786 -0.0477777
25 2 46.8461 14.5346 31.5451 -1.85531 -0.802264 -0.898803 0.638903 -0.128439 0.601478
26 1 -0.43055 27.1964 -1.13247 -0.961618 -1.28511 0.688781 0.053621 -0.119911 0.182771
27 1 43.7388 0.945405 40.2591 -3.53806 0.242624 0.829087 -0.170283 -0.80058 -0.639922
28 1 28.6926 -2.01867 32.5572 -0.792029 0.575817 1.22669 -0.623735 0.293814 0.209763
29 1 0.37044 33.2909 13.1768 -1.11006 -0.355845 -2.59708 -0.317741 0.227908 0.868228
30 1 16.814 55.7804 0.798773 -2.71201 1.71547 1.934 0.12316 -0.193627 -0.134725
31 2 0.00779784 54.3438 18.2483 1.15543 -0.129592 0.743955 0.208522 -0.252952 -0.144792
32 1 45.7222 48.3749 26.8784 0.639559 0.47962 -2.79512 0.0845994 0.129643 -0.603439
33 1 9.40585 20.639 29.0674 0.773446 1.29452 -0.11672 -0.021364 0.35326 0.0465832
34 1 44.81 21.197 29.799 2.24449 -2.50456 0.011492 0.0522961 -0.35065 0.285252
35 2 34.8228 -2.80076 20.481 1.62229 1.34784 0.146718 0.177118 0.598836 0.26823
36 1 39.1887 36.5138 7.1626 -3.18779 0.509808 -0.329046 -0.157776 -0.394125 -0.0747401
37 1 -1.16916 3.05826 31.5518 -1.35864 1.6824 2.22989 0.0106278 -0.422043 -0.736133
38 2 49.8226 4.44342 49.1687 -0.303746 0.887178 2.53672 0.205269 -0.195362 -0.385331
39 2 24.9295 34.7465 51.2225 -1.36128 -3.80429 -1.89342 0.195642 0.212485 -0.394402
40 2 51.049 38.1985 40.3907 1.02704 -2.24451 -0.640389 0.502972 0.874541 0.0469515
41 1 8.66118 23.5071 19.9374 0.051655 -2.10518 3.14685 -0.259552 0.0550263 -0.00861437
42 1 -2.80621 54.9126 38.4314 0.535435 2.7738 -1.33517 -0.0210247 -0.36154 0.160162
43 1 33.5139 3.70244 48.3191 0.0863851 -1.11637 0.923725 -1.18727 -1.26331 0.554433
44 1 46.6069 19.3662 15.1611 -1.84265 0.754101 0.40179 -0.446541 0.389992 0.226328
45 1 23.152 33.8477 53.3608 -1.33587 1.26875 0.606776 0.494983 -0.254901 0.111974
46 1 37.629 40.0968 -0.999628 3.48305 1.6481 -3.4686 -0.325644 -0.479203 -0.0685373
47 1 46.1003 10.895 14.8437 3.38398 -0.920704 -2.39746 0.0196643 0.280848 0.30431
48 2 12.2951 16.4828 19.4015 0.860829 0.452343 -0.701493 0.103137 0.574541 -0.350653
49 1 7.88061 30.4093 1.02118 1.93948 -0.784606 -2.03214 0.0312002 0.831275 0.194192
50 1 34.5314 4.53604 14.4102 -6.44854 3.47024 2.67602 0.361899 -0.0855044 -0.307157
51 1 12.3246 32.4365 53.0469 -0.462534 2.03287 -1.6544 -0.24781 -0.264494 -0.05876
52 2 30.4114 29.4346 34.8133 1.00835 -0.0550949 4.11832 -0.0401236 0.730576 -0.154666
53 1 35.9942 37.1153 11.2803 0.608265 -2.03879 1.85546 0.0868091 0.661025 -0.289306
54 1 34.7119 1.45951 3.94441 -0.961848 0.685258 -1.45353 0.405085 0.471484 0.145284
55 1 33.9475 -1.6491 16.8621 -0.769965 1.17464 2.55988 0.83199 -0.429625 -0.0984685
56 1 26.8432 26.1996 40.0501 -2.90563 -0.179298 -2.38348 -0.0240691 -0.0609188 0.59328
57 1 -2.74546 50.8328 41.4628 0.560293 -0.391297 1.54789 -1.11522 -0.0503975 0.00216459
58 2 45.3301 22.2046 -1.54755 -1.01343 1.51848 0.985085 -0.808034 0.0541772 0.0542995
59 1 21.2264 -2.34167 36.3237 0.054103 1.53403 -1.77433 0.666039 -0.38344 -0.0858348
60 1 12.7336 6.72849 55.1689 1.91563 3.07408 0.463554 0.75342 0.00268882 -0.116426
61 1 35.8401 31.0644 33.2987 -1.18002 -0.818912 0.902892 -0.0723459 0.11691 -0.114316
62 2 17.7459 48.1009 37.8177 -1.89022 0.0197957 -1.5658 0.00315065 0.243423 -0.363708
63 1 41.7956 9.71586 24.2928 -0.3087 -2.50203 0.0460011 -0.841849 1.16448 0.123615
64 1 8.81391 5.58124 10.508 1.51606 -1.95667 2.30758 0.0626912 0.625939 -0.160145
65 1 8.22773 29.5557 51.4299 2.16447 4.05327 -2.15513 -0.290367 0.460632 -0.0331114
66 1 18.4723 53.5574 46.2897 -2.18307 -2.64303 0.39415 0.0157307 0.436556 0.0137407
67 1 21.1112 12.5378 54.3654 0.377706 -1.42616 1.49228 -0.0128101 0.885109 -0.699207
68 1 1.97387 22.0174 8.00073 -0.164896 1.98158 1.712 -0.011806 0.50699 -0.442156
69 1 21.6859 48.3179 53.6757 2.1032 0.632656 0.508115 -0.267233 -0.502656 0.0537248
70 1 27.7528 49.3913 23.1457 -1.25505 1.54405 2.7056 0.180074 0.191276 -0.576266
71 2 41.5195 26.347 4.37304 -1.08671 1.39287 -3.90598 -0.585768 0.189486 -0.17743
72 2 47.7966 28.9183 50.4761 0.728555 0.73263 -0.137162 -0.472521 0.661766 0.243945
73 1 8.39005 11.3165 27.8175 2.27105 2.73629 -1.85247 -0.0379476 -0.594348 -0.0493095
74 1 36.3508 8.30001 -3.20812 -0.345802 -0.588365 1.83083 0.16705 -0.233683 -0.536511
75 1 36.437 22.871 -3.07855 -2.46719 -0.325202 -0.42657 0.182031 -0.27338 -0.0899537
76 1 18.6356 5.5626 38.5615 -1.35202 0.621148 0.0132105 -0.291276 -0.408827 0.443013
77 2 14.9726 19.0219 -2.47643 -2.28615 0.308484 -0.68718 -0.190991 0.0917182 0.0700094
78 1 38.728 -0.641576 49.2723 -1.52675 2.79473 0.85695 0.843769 -0.015473 -0.434089
79 1 0.931752 39.1126 6.74776 1.40846 0.674659 -2.38152 0.0400551 0.0701338 0.0933425
80 1 39.5806 39.8246 -2.9134 1.54119 1.00207 2.1016 -0.0618725 0.636064 0.214188
81 1 28.0717 36.2313 -0.21899 1.56452 -0.84403 -1.23643 -0.388458 0.53839 -0.232013
82 1 48.6785 -0.299809 38.7288 0.860014 1.47575 -0.297131 0.444002 0.0671407 -0.175701
83 2 52.544 47.0066 13.8961 -0.0995266 -3.69855 1.86955 0.839195 -0.116076 -0.149133
84 1 45.3854 7.60903 39.5804 0.606438 -0.778146 2.09324 0.346064 0.140577 -0.212002
85 1 41.0305 50.4281 -0.880081 0.99571 -0.579915 -2.89889 -0.208337 -0.019893 0.397732
86 1 39.3855 15.5325 7.14912 -1.31294 -1.05424 -0.0569108 -0.350772 0.603383 -0.240621
87 1 21.7582 3.19899 44.558 -0.231289 -0.112632 -0.910185 -0.414627 -0.111433 -0.139399
88 1 -2.67136 13.41 6.07042 3.09378 0.39554 0.198838 -0.428226 -0.542411 -0.0202549
89 1 13.324 49.9294 33.7195 0.104681 0.0303507 1.63635 -0.592848 -0.928894 -0.0861183
90 1 45.5002 48.265 32.3325 -0.765194 -2.2999 -2.02438 0.194541 0.359548 -0.447801
91 1 20.9991 29.8993 4.29527 4.74159 -1.6445 -0.893346 0.0774319 0.222285 0.75813
92 1 55.7442 -0.378344 40.1407 4.41941 -0.970503 0.495034 -0.0966329 -0.0380745 -0.242983
93 2 19.8039 47.4773 33.0956 0.795605 -1.08497 -0.527442 0.0887597 -0.143678 0.228431
94 2 4.8757 47.5734 30.2329 0.991407 1.14821 -0.85329 -0.0761533 -0.441481 -0.110143
95 1 52.0125 51.4709 29.0345 0.774762 0.703731 1.56919 -0.481704 0.0348048 -0.483379
96 1 43.2243 -3.34107 37.9738 2.13492 1.06602 0.176617 0.18972 0.527094 0.480643
97 1 56.0902 28.0994 20.8215 2.59505 0.0570636 0.450527 -0.138191 -0.352739 -0.512464
98 1 11.3348 21.0109 15.9611 -2.41324 -2.37086 -0.911217 -0.465309 -0.716841 0.199795
99 1 8.64865 33.8933 26.8774 -1.163 -1.8163 -1.30235 0.459805 0.237854 0.0464631
100 2 54.8061 54.6792 11.8823 -0.744987 2.07246 -1.83539 0.182662 0.519715 0.437077
101 2 6.2754 11.0273 15.4637 0.109249 1.16523 -0.513375 -0.018818 0.424679 0.409416
102 1 43.1353 34.7643 54.0815 -1.61929 1.10047 -0.475883 -0.320321 0.0223381 -0.682869
103 1 7.35761 52.1182 5.14964 0.676408 -0.898745 0.0656642 0.687146 0.360835 0.375054
104 1 30.5064 40.5326 37.1158 1.12516 -0.278514 -2.49666 0.114844 -0.162653 -0.2943
105 1 9.46353 41.0512 45.5747 -2.41969 -0.435753 1.63755 0.100967 -0.70497 -0.0635794
106 1 7.62626 26.2148 4.73655 -0.702307 0.886148 -0.359617 0.248905 0.188798 -0.688571
107 1 26.1288 7.48693 25.024 -1.13696 0.439017 -3.3404 -0.0315852 0.493232 -0.235737
108 2 0.646774 33.5474 40.0735 1.70254 0.567955 -3.99549 0.627091 -0.132211 -0.552376
109 2 53.4479 -1.06105 28.7542 0.946144 -0.749312 -1.04098 -0.0849928 0.446727 0.276858
110 2 32.7965 21.7626 7.35683 -1.28867 -1.27532 -1.29258 -0.0725936 -0.980556 0.040526
111 1 42.4649 44.1061 24.6367 -3.67799 -2.07475 2.31519 0.484884 0.125044 0.486719
112 1 17.468 10.3677 40.5512 2.78248 2.3985 1.84188 0.371797 -0.131102 0.0923767
113 1 4.58071 56.1786 44.2114 2.37062 -0.0289451 -0.986063 -0.339368 0.504478 -0.0420716
114 1 0.93241 51.7978 34.734 1.32536 2.18104 -0.412151 0.953833 -0.752998 -0.515428
115 2 53.629 9.25674 43.8426 -1.66541 -0.0489016 -2.01246 0.0278444 0.752991 0.10619
116 1 11.8158 36.1397 34.1699 2.59824 -1.72836 1.06662 -0.415168 -0.375783 -0.581336
117 1 33.4087 29.4962 0.449419 -1.98361 3.3327 2.43864 0.385252 -0.134242 -0.0610523
118 1 35.9542 -2.71341 43.4055 -1.01632 1.78662 -1.21418 0.0462145 0.481547 -0.25803
119 1 -0.267812 49.1095 38.2637 2.88825 -1.36288 -0.353082 0.429326 0.186185 0.865951
120 1 49.8165 1.58935 -2.49624 -2.76226 0.287504 -0.331372 -0.321443 -0.128495 -0.603274
121 1 47.5301 13.4906 34.1888 -2.75276 -0.91846 1.12871 0.382456 0.295138 0.562755
122 1 18.8315 22.5871 32.3846 0.0126847 -3.31211 0.752774 0.487616 -0.261719 0.105163
123 1 25.8939 25.7939 22.897 -1.51681 -0.226622 -1.14844 0.253262 -0.292069 0.00265517
124 1 10.326 54.1301 25.9722 4.16984 2.81267 -2.76481 -0.139074 -0.463631 -0.155792
125 2 7.6012 27.7685 46.6678 0.308041 0.842364 -1.62979 -0.244085 -0.277149 0.149597
126 2 32.2141 22.6688 34.4983 1.74037 1.55707 0.646764 0.210564 -0.469903 -0.198304
127 1 22.9401 21.7151 34.9722 -1.6986 -2.15499 -2.51027 -0.768315 0.077622 0.342931
128 2 54.3266 40.0793 7.15231 2.29722 0.275847 -1.66798 -1.37148 -0.108162 0.040479
129 1 32.0632 55.468 43.9803 -1.29861 -0.172982 2.3424 0.289074 -0.47566 -0.178207
130 2 11.178 55.4251 40.9277 0.303573 -1.21371 -0.703557 -0.201537 -0.230861 -0.361844
131 1 11.666 23.8531 -2.05255 -2.89069 2.39401 -1.34686 0.0223862 0.540987 0.179703
132 1 22.3665 36.9594 55.2722 -2.47567 0.275341 -0.542843 -0.481381 -0.150653 0.703957
133 2 3.81297 24.8399 42.2083 0.578743 2.56927 -1.78787 -0.0615326 0.0942907 0.169228
134 1 18.6376 39.0212 24.5111 -1.46114 2.33774 -1.34489 0.199285 -0.0877177 0.365447
135 2 18.6664 3.61069 54.1408 1.40705 -2.9186 0.151207 -0.576997 0.461526 -0.251435
136 1 53.3613 49.8059 27.8526 1.21205 3.49742 0.812555 -0.0978684 0.612541 -0.597768
137 2 34.4699 50.0764 20.5 -0.592421 0.818392 1.1164 -0.377577 -0.349569 -0.0838621
138 1 24.1324 22.8672 39.8877 -3.16249 -0.265837 0.415301 0.742206 -0.0935781 -0.272378
139 1 -0.880959 32.9065 33.8377 2.42222 0.102473 1.97337 0.123367 -0.308662 0.169434
140 1 53.5641 42.2707 37.9602 1.75046 0.435113 -1.6764 -0.785616 -0.154346 -0.0169129
141 1 20.8919 -0.665627 27.0407 0.60345 -0.891497 -1.38264 0.403008 0.384607 -0.27757
142 1 14.7833 5.23169 41.1345 -0.208866 1.11581 2.39851 0.513424 0.0345983 0.120598
143 1 15.1559 22.4788 29.6382 0.315878 3.23414 0.638022 0.177666 0.503194 -0.353183
144 1 26.7252 51.3841 38.0463 -1.92298 -1.57182 1.7083 -0.394836 0.172968 -0.469552
145 2 26.1215 -0.0268173 5.01485 -0.508241 -2.2465 -0.158778 0.564662 0.262759 0.263405
146 2 55.428 36.0609 26.221 -0.877732 1.08743 -1.55477 -0.0800648 -0.22884 9.09382e-04
147 2 44.6488 53.1654 31.9607 -0.201351 -1.21538 -0.704698 0.57869 0.0364976 -0.225817
148 1 16.5869 14.7111 54.1981 0.0846202 1.69729 -5.0351 -0.0137536 -0.170826 0.0486207
149 1 -1.07677 32.0205 6.92117 -0.965039 1.18225 -1.05143 -0.28566 -0.672218 -0.148157
150 2 24.5825 29.7665 12.1895 3.33307 0.990443 3.49308 0.450568 -0.132491 0.516798
151 1 11.858 5.46062 19.539 -0.75215 4.83993 -0.986528 -0.536801 -0.541057 -0.00118755
152 2 42.7399 34.9736 13.5192 -0.43579 2.07027 2.77683 0.738814 0.0742195 0.18699
153 1 14.1301 36.5885 37.8327 0.352282 -1.36555 -0.142078 -0.40836 -0.069649 -0.044442
154 2 20.7733 10.6359 18.9528 0.286909 -0.191528 -1.94954 -0.255562 -0.235788 0.0696545
155 1 54.8258 0.895788 12.9011 -1.8884 2.1618 -0.0680825 -0.0483384 0.0502144 -0.00403502
156 1 55.7429 31.904 3.49644 1.16845 -0.140207 -1.51864 0.570024 -0.138229 0.0430754
157 1 42.8997 53.5232 29.6422 -3.78309 -0.965225 -2.6947 0.329404 0.274571 0.203625
158 1 18.0855 32.3827 26.0123 -0.325902 -0.654502 -1.97803 -0.756771 -0.649634 0.634026
159 1 40.1358 22.8213 47.3996 -4.07354 -0.0646675 -1.45218 -0.192658 0.0186748 -0.489663
160 1 45.0478 29.6089 45.769 -3.68277 -3.35413 0.425379 -0.0933555 -0.26848 -0.216018
161 1 37.3896 39.8995 23.7773 2.87695 2.3643 0.797266 1.10525 0.31506 -1.28608
162 1 48.1676 51.925 42.2323 0.228308 -0.104283 1.28224 0.422379 -0.372134 -0.191762
163 1 38.9914 9.42797 -3.21447 -0.409588 -0.288449 -1.67075 -0.360031 -0.265667 0.0796143
164 1 37.7894 27.9753 25.2535 0.784666 3.17853 -0.04506 0.161371 0.241189 0.157925
165 1 6.66359 11.045 10.7118 0.866825 -0.847514 0.398362 0.20158 -0.032928 -0.369377
166 1 16.5512 42.2712 21.5004 2.90746 0.329574 -0.794288 -0.389623 -0.108897 0.0645674
167 1 55.3403 49.7383 37.1974 2.80374 -0.345332 -0.729327 0.612818 -0.0364128 0.044244
168 1 18.3919 44.5328 8.53583 2.31102 2.06931 2.67687 0.650922 -0.763823 0.306691
169 1 42.0094 41.41 38.3231 1.3249 1.85899 -0.573348 0.193067 -0.176364 0.403014
170 1 12.6668 26.2334 46.1865 -3.19416 0.240651 0.193144 -0.457013 -0.202554 -0.500173
171 2 30.0358 25.5345 32.262 -2.08099 -0.355867 1.06957 -0.174659 0.0179833 0.0254608
172 1 -3.59209 5.19616 34.3431 0.553247 0.175083 1.30287 -0.173439 0.209239 -0.533862
173 1 52.9156 -1.32841 -2.39037 -1.11736 -4.03064 -2.40099 0.0456274 -0.113899 0.446809
174 2 22.2194 2.29282 0.587443 -2.30371 0.917777 1.39288 0.751255 -0.254984 0.17611
175 2 13.5338 30.4927 38.2118 0.560714 -2.30135 -0.10803 0.746418 0.0932194 -0.0659534
176 1 24.337 25.7972 2.55592 0.157534 -0.65206 -3.24294 0.88789 -0.166736 1.1647
177 1 47.5455 13.2026 -0.621206 1.87796 -0.503938 -1.36692 -0.477305 -0.081845 -0.329089
178 2 8.70684 41.6557 39.648 -1.13896 -1.24569 -1.48777 -0.141171 -0.024899 0.1842
179 1 8.75663 33.6601 35.923 2.13664 -2.78706 2.5998 0.0633216 -0.371673 -0.144899
180 1 10.6102 5.30123 45.2304 -1.44599 -0.667387 -0.773669 -0.976981 0.617396 -0.615932
181 2 38.8908 -3.369 1.47854 -3.39483 -0.00556311 -0.957162 -0.0648964 0.106809 0.182459
182 1 12.0739 28.9709 29.7747 -1.01485 -4.65907 -0.824075 -0.693708 -0.115326 -0.447462
183 2 0.86932 49.5768 53.7077 -0.545067 2.87688 -0.420603 -0.341803 0.0896923 -0.460739
184 2 35.7071 5.46939 17.1096 0.343843 3.09436 0.709501 0.405476 0.356845 -0.273413
185 1 43.0727 -0.460897 -3.45209 -3.25271 0.362399 0.605399 0.290622 0.280297 -0.439258
186 1 53.6371 46.5562 20.4605 1.44699 -2.58814 -0.87554 0.199719 0.136792 0.230162
187 1 33.9554 49.8559 50.6625 -0.880422 0.442136 1.59893 -0.0710887 0.611225 -0.525388
188 2 5.4768 31.9067 2.00479 -0.737546 1.44174 -0.640667 -0.523034 -0.622516 -0.447101
189 1 14.3022 47.6877 50.6244 3.25931 0.70187 1.22607 -0.64392 0.241881 1.06231
190 2 -2.96973 0.445519 49.585 0.992328 2.33752 0.232166 -0.164806 0.00169924 0.738513
191 1 26.4404 9.78002 46.1451 -1.17816 -0.180701 0.76241 0.434431 0.445149 -0.226668
192 2 24.4317 49.3637 38.9036 -1.37927 0.807591 -0.29979 0.281605 -0.00601208 -0.204006
193 1 30.876 46.7766 1.76572 1.39067 -0.881494 0.62398 0.308327 0.506051 -0.20253
194 2 43.3141 44.6158 47.7762 0.934764 0.465768 1.95883 -0.2216 -0.105028 0.816629
195 2 18.745 42.2383 32.277 -1.93094 -0.249138 -0.436489 -0.0390123 -0.177101 -0.668114
196 1 26.8579 0.469149 7.4964 1.21868 -1.22581 -1.20379 -0.0525372 -0.0106592 -0.0389345
197 1 1.92368 24.6488 30.6939 -0.499959 -2.63259 2.31607 0.241846 0.121472 -0.345285
198 1 34.0942 15.2149 41.9071 -3.1006 -1.94158 2.40649 -0.00633116 0.0846839 -0.170975
199 1 23.6475 -1.45343 12.7979 0.925837 -0.49248 1.04881 0.59827 0.0211227 -0.067128
200 1 38.688 16.862 -0.256527 0.168216 -3.64384 -2.29121 -0.072957 0.715714 0.840747
201 1 55.1568 5.13329 10.5753 0.21433 -1.36808 -0.693878 0.170278 0.00649243 -0.28539
202 1 46.8363 -0.871073 37.0517 -0.67498 1.42274 -1.26121 -0.0784857 0.211893 -0.196867
203 1 21.4856 0.198411 36.9104 1.85075 -4.36016 -1.23848 -0.466306 -0.158774 -0.325819
204 1 17.651 38.3467 40.2069 -4.47211 -1.85206 2.22266 0.150075 0.247873 -0.0449436
205 2 13.7973 2.11142 54.0863 1.20436 0.261506 -0.964181 -0.268268 -0.0214212 -0.0104613
206 1 48.4491 25.7485 27.2935 -4.49519 -0.0171154 -2.74671 0.498163 -0.00755459 -0.522195
207 2 0.505544 52.7269 6.84372 -0.870749 -0.173184 -0.0863572 -0.538927 0.341234 -0.410096
208 1 27.6682 1.28157 -3.34704 -0.203256 -0.70584 -2.28523 -0.413742 -0.020004 -0.427344
209 2 28.4153 9.62072 -2.82805 1.31257 0.0563748 -1.6652 0.318796 0.36431 -0.380084
210 2 1.13773 28.8037 32.0325 -0.929735 -1.39265 -2.47173 -0.0711158 -0.61356 0.226681
211 1 36.1467 17.222 28.2571 3.06983 -2.6617 -2.84413 -0.300571 0.0880433 -0.103761
212 1 3.31374 23.0391 37.536 -0.218754 -1.65131 -0.33134 -0.33691 0.0526097 0.289976
213 1 4.90792 16.697 0.566011 5.31427 -1.1597 2.86221 0.817245 0.202474 1.03971
214 1 51.6338 12.5087 19.2334 -0.526906 -1.71177 1.68915 -0.342162 -0.28854 -0.139311
215 2 4.58308 19.327 19.6684 -2.1737 -2.75998 1.23549 -0.0388715 -0.102136 0.0175971
216 2 48.7256 39.7198 33.3923 1.754 2.10767 1.21018 -0.842696 -0.557066 -0.39716
217 1 36.9896 13.8243 33.1888 0.158806 2.32074 0.584811 0.776474 -0.107174 0.715475
218 2 36.3974 11.8956 44.4284 -4.14762 0.724589 0.0387622 0.279436 0.095013 0.503719
219 2 32.5257 50.1756 25.1377 -0.00858354 -2.09941 -2.0546 -0.196692 0.610597 -0.387033
220 1 41.3872 5.26238 41.256 2.23149 0.732081 -3.51422 0.0630404 -0.613169 -0.207344
221 2 51.5543 29.3073 53.9879 2.39325 -0.0583426 1.44787 -0.48064 0.292609 -0.186291
222 1 43.9058 13.5847 44.4069 -3.01393 -0.180845 -0.768149 -0.690708 -0.451644 0.290274
223 2 18.7687 8.05177 52.5605 2.64988 0.210483 1.01031 -0.0146612 0.298925 -0.557072
224 1 2.24561 17.6221 18.8443 0.487429 -0.4523 1.65964 0.288893 0.128725 0.227806
225 1 28.6971 50.5963 27.732 -4.85531 0.510888 0.774042 0.343673 0.431953 0.162574
226 1 26.1686 48.983 37.1034 -3.73153 0.128696 -1.51719 0.358483 0.0612409 -0.328078
227 1 50.0329 30.2418 28.9615 -2.93991 -5.61506 1.39981 0.664681 -0.0896172 -0.225191
228 1 6.20195 2.41342 28.2871 2.48676 1.05763 0.229354 0.0452673 0.264534 0.0365035
229 1 1.07849 50.8252 20.619 1.56842 2.08435 -0.423332 0.179942 -0.0864603 1.26795
230 1 4.10903 6.40586 -2.62296 2.38299 0.539176 2.06488 0.751167 0.518708 -0.178458
231 1 45.9765 10.7756 28.1758 1.47907 -3.83524 0.335222 0.639294 -0.164472 -0.228173
232 2 10.2251 2.53661 45.0961 0.601771 -2.46256 -0.753781 -0.543233 -0.222613 -0.561828
233 2 16.4013 39.8833 45.8011 0.0259864 -2.53326 0.977308 -0.482597 -0.345011 -0.4952
234 1 38.3554 31.4901 8.74398 0.703564 0.090804 -1.8624 0.807362 -0.11505 0.290648
235 1 24.4976 45.8264 23.5747 0.749795 2.66425 -0.564225 0.36817 -0.20218 0.0816574
236 1 14.8635 48.1305 8.42494 -0.715053 -0.705667 -1.99804 0.262484 -0.676924 -0.789606
237 1 52.2281 -0.12668 46.9871 0.380618 -2.12179 1.64174 -0.255547 0.117117 0.0827159
238 1 -2.76421 12.7979 8.53235 0.175418 -0.314704 1.5174 -0.307794 -0.678018 0.174091
239 2 7.64721 49.4417 26.3309 -1.71273 0.967425 -1.80952 0.185503 -0.435246 -0.0155535
240 1 18.1491 40.1832 36.3436 0.976612 -2.11747 -2.08649 -0.0944417 0.338903 0.0268138
241 2 35.4903 -2.09133 25.2848 -1.1829 1.63352 -0.419506 0.225484 0.0615331 -0.399167
242 2 34.8807 10.4767 42.1418 1.51744 1.62374 0.071802 0.0394539 0.377827 -0.408927
243 1 38.1517 26.3601 27.3697 0.353697 -1.08235 -0.971791 0.345861 0.366481 -0.0915963
244 2 27.3154 -2.89239 23.7424 1.69112 0.040053 -0.279021 0.413181 0.0293394 0.722178
245 1 55.49 55.4134 42.0789 -0.842202 0.124241 -1.08419 -0.30873 -0.307528 -0.317134
246 2 24.6076 -2.93826 41.6232 -4.21142 -0.584935 -0.190553 0.540133 0.468767 -0.47344
247 1 46.8692 44.763 24.4828 -1.15858 -0.525212 1.3231 -0.156267 -0.165115 -0.269699
248 2 40.697 -2.63841 24.5502 3.31123 -2.74546 -1.9496 0.112006 0.274358 -0.65043
249 1 42.2758 31.4116 3.30605 1.72873 -0.285756 -1.88043 -0.447266 -0.534279 -0.304166
250 2 25.4702 39.7332 50.0967 -1.3487 -1.35518 -0.0607402 0.292702 0.225044 -0.102934
251 1 4.17258 0.968281 -1.71443 -0.709664 3.71281 2.37008 -0.346573 0.465929 -0.164754
252 2 23.2839 41.1135 4.27614 1.28221 2.93014 2.25081 -0.438307 0.0523594 -0.21326
253 1 45.2533 37.4525 18.1408 3.08433 2.59192 1.31331 0.0502273 -0.140662 -0.887677
254 1 55.1821 13.8035 34.6724 -0.23981 4.87861 -1.22101 -0.1225 0.583817 -0.0772849
255 1 35.6481 -3.68845 50.5136 -0.493646 0.123737 -0.495253 -0.355573 0.345847 -0.730949
256 1 32.3678 16.399 6.7344 0.0769729 -2.154 0.835486 -0.959095 -0.753278 0.154894
257 2 15.5386 10.6343 6.78254 2.15094 0.322239 0.269853 0.182949 0.275755 0.380946
258 1 -2.08255 42.4776 14.664 2.10692 3.29412 -3.64703 0.3934 0.0404401 -0.121533
259 2 46.1604 50.5044 33.4292 -0.988325 -0.319342 1.39923 0.486037 0.0756191 -0.122786
260 1 -1.17789 10.913 45.5545 -1.14847 2.78908 -2.32222 0.0933589 -0.252256 0.866162
261 1 52.988 52.7862 39.2825 1.32952 -4.10323 0.653662 -0.084894 0.22531 0.0874755
262 2 22.9219 1.41825 47.0449 0.602193 -3.87697 -0.940787 0.402403 -0.277931 -0.0445227
263 1 22.6047 20.5154 24.8163 -1.15425 1.36345 1.34324 0.291769 0.647344 0.344766
264 2 49.4564 34.7328 38.4415 -1.48269 -2.41104 0.695108 -0.476267 -0.618207 0.398893
265 1 13.7644 29.7681 43.4907 2.91563 5.24326 0.978555 -0.817202 -0.0491597 -0.287005
266 1 12.6931 3.01691 36.5822 2.14691 -3.21624 2.03622 -0.213923 -1.00745 0.751384
267 1 52.9186 35.6446 54.3251 1.92342 4.77062 -0.968758 -0.434512 -0.460959 -0.489161
268 1 29.7388 32.3348 34.524 -0.726768 5.90575 1.91205 -0.282705 0.138027 -0.615246
269 1 46.2324 13.355 44.939 1.58398 -0.0968281 0.912834 0.292253 0.213144 0.159077
270 1 46.9349 27.0113 28.7926 2.46853 -3.30654 0.822285 -0.65539 -0.0584238 0.23517
271 1 9.53788 29.2492 45.3546 2.76927 -1.67053 2.28544 0.0148025 0.20464 -0.529497
272 1 27.1785 38.3701 13.1316 0.847144 0.928381 -0.24547 0.124106 -0.0470054 -0.154605
273 1 19.8992 30.0427 52.4349 0.374094 1.11178 -1.96411 -0.966384 0.563694 0.160229
274 1 14.9803 -0.223675 53.1217 -2.26931 -2.44489 1.10443 -0.130019 -0.05512 -0.223176
275 1 26.0821 9.99357 53.4406 1.49468 0.593065 -2.09316 -0.66517 0.246675 0.213769
276 1 2.26461 39.3182 37.4225 0.101824 3.02391 -1.27721 0.224322 -0.165587 0.805087
277 1 16.8686 51.5511 33.8535 1.52954 -0.422211 1.51743 0.306128 -0.407232 -0.0518254
278 1 6.6118 -0.502988 45.3182 -0.093201 2.40145 -3.57581 0.350559 -0.259482 0.058709
279 1 38.5393 52.4213 14.152 -1.8784 -2.86908 1.94889 0.227917 -0.813968 -0.257307
280 2 25.7916 9.19133 18.6613 3.10065 1.72587 0.837782 0.162815 0.354864 -0.473835
281 2 41.3996 23.8974 51.7077 0.767663 -0.543831 -0.267461 -0.0560176 0.586696 -0.364655
282 2 17.0995 42.8049 38.2389 -1.28751 0.0342038 -0.612248 0.608945 -0.732738 0.497457
283 2 44.7381 -1.4461 10.8406 1.02287 0.533494 2.03084 -0.149948 -0.553175 -0.626032
284 2 18.8282 52.0913 19.8336 -2.17046 -0.295637 -1.62656 -0.141898 0.147631 -0.476166
285 1 48.1698 5.98412 36.2702 0.0888364 1.67254 2.62637 -0.232736 0.424244 -0.139871
286 1 20.0906 56.0755 13.645 1.00153 1.99809 0.50706 -0.15529 -0.389886 0.607659
287 1 45.266 47.8742 22.2708 -2.34068 -1.09795 -1.2228 -0.521952 0.472754 -0.460765
288 1 13.482 43.488 44.7958 1.47157 -1.99769 -0.149648 -0.272982 -0.834727 0.336301
289 1 2.49635 8.15872 29.4284 0.194517 -0.0910628 -1.16299 -0.652274 0.212492 -0.0430538
290 2 -1.03956 45.7827 2.99793 -3.23995 -2.91677 1.37577 0.150439 -0.122676 -0.288425
291 2 17.1148 36.7108 23.9109 2.20136 -0.552862 1.04992 0.214424 -0.456292 -0.489871
292 2 13.6238 -1.70956 22.7796 -0.870456 -0.532818 1.99082 0.768865 0.657671 0.37736
293 1 3.58142 51.073 3.50271 -1.66341 1.14984 0.869469 -0.110532 -0.887372 -0.387033
294 1 34.4759 44.6513 6.65787 0.473446 -0.802718 -0.608133 0.043368 0.277803 -0.155389
295 1 13.4628 17.8201 12.1847 1.22101 -3.53598 -1.08848 0.148384 -0.154397 -0.0656589
296 2 23.2673 44.8636 8.44445 1.85491 1.44673 0.0740541 -0.142404 0.365884 0.319929
297 1 29.8044 18.6965 49.6704 -0.814058 -0.802956 3.89842 0.486612 -0.747148 -0.261942
298 1 38.3117 13.6022 45.4399 -0.0678248 -1.28976 1.57394 -0.346217 0.123163 0.395574
299 2 9.73178 9.71936 22.2656 0.814053 2.12522 0.764025 0.113345 0.0452077 -0.219068
300 2 52.3279 37.8423 6.21682 1.75112 -1.86563 -1.26722 0.141584 -0.0200439 0.504046
301 2 0.902582 4.86265 -1.00071 1.41401 -2.3315 0.880087 -0.244213 0.560552 0.742764
302 2 1.13093 47.511 49.2657 -0.462743 -0.552022 -1.41826 -0.0769125 0.602866 -0.160202
303 2 39.3876 3.56884 28.6283 1.43076 2.9207 -1.1314 0.0736019 -0.599192 -0.642447
304 2 55.749 49.1629 34.5024 0.520912 0.220893 0.171175 0.906323 -0.799138 0.128492
305 2 23.5945 -0.104673 -1.12988 -2.02111 -1.09296 0.859111 -0.0624527 -0.789875 0.109093
306 1 25.6693 41.0231 22.16 0.111172 1.70993 -2.18318 0.688195 -0.339469 -0.197211
307 2 35.1596 6.95226 39.5008 -2.39618 -1.30979 -0.461354 0.264094 -0.367638 -0.405402
308 2 3.66199 53.1289 7.108 -1.14995 -2.38135 -2.87525 0.0404144 -0.579419 0.268585
309 2 13.2248 32.6899 9.8438 -2.16684 -0.074229 0.585383 -0.0697537 -0.406504 0.185589
310 1 40.127 5.76376 8.17864 -0.30078 1.12553 0.780947 0.074935 -0.29961 0.179937
311 2 37.9595 43.4869 20.0822 -0.628129 -0.940766 -3.37351 0.320319 -0.0781338 -0.669949
312 1 37.8511 6.43559 53.1888 -0.189862 -0.0550283 -2.53885 -0.132698 -0.25861 0.128289
313 1 21.6092 5.19385 49.3586 2.88777 -3.51863 1.08639 0.0323229 -0.394938 0.147247
314 2 54.1151 23.7449 19.408 -1.85179 2.87101 1.02343 0.496436 0.0418048 0.266729
315 2 19.6503 17.5356 49.1175 2.81524 -1.85756 -1.57914 -0.307608 -0.627074 -0.606533
316 1 -2.27477 55.4077 10.0439 -0.277581 -0.539696 -0.458413 -0.400531 -0.00352688 0.302806
317 1 9.75229 21.3392 45.6932 0.523383 -2.18564 3.07979 -0.321242 -0.554208 0.311522
318 1 -3.48211 -2.23414 41.8949 -0.955023 1.07956 -1.03869 0.332053 0.0751135 -0.271022
319 1 13.146 52.7168 30.6848 3.02524 -4.69763 -1.94875 0.621179 -0.288306 -1.0208
320 1 16.2035 45.4192 29.1314 1.5028 1.90193 -0.674113 -0.0143332 -0.215501 0.146983
321 1 15.9722 15.3191 20.2165 4.19743 -1.16733 4.06382 0.121415 0.291388 -0.704792
322 1 6.27401 47.1254 18.1738 -2.03529 -1.27768 -1.63125 0.0104334 0.0315535 -0.0882526
323 1 1.52569 41.267 42.4519 -0.623362 0.50868 -0.0134914 0.469727 -0.30265 0.110332
324 2 12.4413 28.8566 16.289 -1.07432 -1.64798 1.55709 -0.394942 0.606257 0.391077
325 2 26.0643 46.4258 7.82274 0.947192 0.572792 -1.37355 0.022809 -0.288105 0.275352
326 1 43.6195 33.9777 15.9792 2.58769 -2.27189 1.33939 0.211677 0.28456 -0.554464
327 2 46.3107 38.4372 11.3487 0.492026 0.421974 4.11866 0.881993 -0.419735 0.0183897
328 1 16.8418 12.4647 23.7119 -0.690092 0.287514 0.738405 -0.565358 0.0518846 -0.00725871
329 1 31.8265 4.7535 20.2178 1.71808 -2.12489 -2.2364 0.684811 0.330146 -0.0217463
330 2 20.1362 24.7857 15.0943 -1.14752 -3.06748 -0.2043 -0.179479 -0.288875 -0.382177
331 1 32.466 -2.33674 2.08718 -1.84017 -1.74871 -1.3457 -0.0624969 0.0544145 0.26918
332 2 36.2969 54.7206 24.6838 -3.71662 1.51076 1.10106 -0.0468981 -0.404001 0.281747
333 1 27.4675 52.7872 5.44788 3.04267 -1.62959 -2.0823 0.5612 -0.0430338 0.126274
334 1 38.9616 51.6085 44.5701 -0.240663 -2.00904 -2.35421 0.220588 -0.198897 -0.145607
335 1 49.3203 52.6311 -1.63052 4.61105 -0.265875 2.69386 -0.280643 0.180244 -0.131444
336 1 45.2755 19.5283 13.0091 1.63547 0.160336 1.56745 -0.311098 -0.119217 0.359312
337 1 -3.00109 -2.44701 55.9843 -2.65318 5.1472 -2.87577 0.241797 -0.330121 0.369207
338 1 18.4961 48.5545 47.6204 -0.53237 0.891925 -2.74474 -0.180667 -0.0688585 -0.0310274
339 1 19.5415 18.5047 8.57938 4.26678 0.470829 -2.66634 0.118029 -0.267484 -0.484385
340 2 0.294566 37.7871 16.7671 1.62088 1.67125 1.09495 0.274648 -0.399127 0.387537
341 1 49.6271 48.2088 55.3589 -2.9088 1.68423 2.0731 0.260904 -0.0636613 -0.417359
342 1 14.2544 48.9277 40.5673 -5.24488 -1.00454 -0.814199 -0.557772 0.414757 0.437536
343 1 22.9972 28.6065 49.4763 1.30096 0.397166 -1.57001 -0.306254 -0.0547805 0.0569356
344 2 31.24 8.16391 31.0124 3.11312 0.0834115 -0.400802 -0.0738938 -0.43073 -0.0160382
345 1 20.1486 9.39312 16.6441 -0.834243 -1.76487 -2.06293 0.0109306 0.075479 -0.0641598
346 2 40.4499 36.0881 4.59401 -1.27064 2.15128 1.59284 -0.107162 -0.324099 0.0691176