ITEM: TIMESTEP
22000008
ITEM: NUMBER OF ATOMS
13500
ITEM: BOX BOUNDS pp pp pp
-3.70072 56.2007
-3.70072 56.2007
-3.70072 56.2007
ITEM: ATOMS id type x y z vx vy vz fx fy fz
1 1 26.0782 54.8834 24.3876 2.79065 -2.90866 -4.35132 -0.277441 -0.361314 -0.0539804
2 2 42.5089 36.7667 37.0344 0.777742 -1.14644 -2.39725 0.0712664 -0.174577 -0.074989
3 2 44.3767 24.931 17.8721 0.121679 2.00649 -2.65973 0.081026 0.687288 0.0942859
4 1 53.9121 13.2757 54.6978 -0.112932 1.16664 -0.296874 0.219614 0.475275 -0.194872
5 1 30.7676 28.5877 25.8999 -1.13218 -1.98537 0.0800917 -0.179096 -0.415144 0.17423
6 2 38.5153 42.2313 52.6869 1.40595 -0.657077 0.917517 -0.223592 0.209725 0.227072
7 1 43.8969 29.5028 16.3253 2.51214 0.696513 1.47362 0.172372 0.934245 -0.111817
8 1 1.9449 -0.637132 42.7544 5.28277 -1.93382 0.169832 0.121938 0.504143 -0.309503
9 1 51.4044 28.6298 17.3227 -1.49529 -2.03954 0.741383 0.162549 -0.444644 0.160252
10 1 33.3723 53.142 14.5768 -1.36929 0.572324 -2.13277 0.0512353 -0.151102 -0.264893
11 2 33.0125 43.5518 55.2054 -1.8921 1.37928 -1.14422 0.0038385 -0.484086 -0.0110332
12 1 1.63366 47.9546 -1.78711 -0.646581 -0.292372 1.49648 -0.0324388 -0.0112815 0.0332351
13 1 30.1538 6.1711 2.99485 -1.62911 -0.974056 -1.70734 0.0030106 -0.0536478 0.0950206
14 1 13.2643 32.4304 36.4308 -1.607 2.08299 2.75462 0.0694496 0.219718 0.157069
15 1 35.8986 3.18153 48.1246 0.967415 -0.498545 -1.58739 0.28507 0.280848 -0.230989
16 2 45.4927 21.3689 21.7589 2.44153 -4.41495 1.21944 0.251938 0.170723 -0.373437
17 1 7.65696 1.8447 43.4449 0.210656 -2.64839 -3.18511 0.174458 -0.29609 -0.193782
18 1 52.8135 29.9018 42.7501 2.67061 -0.757692 1.94291 0.153945 -0.333738 -0.0512509
19 1 42.849 15.7142 45.0784 -2.4688 0.916431 0.60711 0.0725713 0.60003 -0.588878
20 1 20.0881 9.83127 4.09351 0.683938 -2.64749 0.387196 0.184494 -0.152974 -0.0717537
21 2 49.1867 18.5008 41.4408 -0.806537 2.30286 -1.70633 -0.0941299 0.163826 -0.102283
22 1 54.7533 7.31553 2.03773 1.00694 -0.894989 1.84814 -0.130497 0.397078 -0.317682
23 2 24.1556 1.61383 3.10608 -0.0490309 1.73579 -0.383213 0.0866783 0.596618 0.121536
24 2 32.1662 52.0495 54.7894 2.08579 -0.678947 0.903113 0.210865 0.29859 -0.102673
25 2 46.8259 14.5205 31.5395 -0.706091 -0.906034 0.205832 0.636561 -0.0150779 0.659759
26 1 -0.445338 27.1747 -1.11787 -0.868196 -1.37214 1.20716 0.0130287 0.0332638 0.250017
27 1 43.68 0.93384 40.2597 -3.81141 -1.60092 -0.763695 -0.0800727 -0.680375 -0.629881
28 1 28.6692 -2.00497 32.5793 -2.03796 1.12093 1.44279 -0.373032 0.154183 -0.0145234
29 1 0.346175 33.2901 13.1538 -1.89186 0.273607 -0.207989 -0.324182 0.282415 1.03043
30 1 16.7736 55.805 0.824346 -2.29632 1.37342 1.17033 0.181189 -0.0754492 -0.455316
31 2 0.0284184 54.3386 18.2572 1.44392 -0.566244 0.328105 0.142057 -0.25033 -0.327582
32 1 45.7337 48.3864 26.8247 0.737824 0.999763 -3.74358 -0.00183759 0.280747 -0.186234
33 1 9.41693 20.6654 29.0665 0.60418 1.94796 -0.00684638 -0.098789 0.185682 0.0362247
34 1 44.846 21.1525 29.8037 2.17578 -2.91387 0.497135 -0.0825553 -0.0128318 0.113801
35 2 34.851 -2.7723 20.4864 1.90251 2.20708 0.503219 0.17256 0.430567 0.146807
36 1 39.1356 36.5139 7.15612 -3.45317 -0.523868 -0.42858 -0.09233 -0.430307 -0.0143269
37 1 -1.18956 3.0758 31.5698 -1.07964 0.521987 -0.17337 0.19402 -0.485367 -1.18326
38 2 49.8214 4.45378 49.2034 0.156084 0.390817 1.72189 0.317156 -0.368576 -0.534883
39 2 24.9099 34.6898 51.1879 -1.13823 -3.25644 -2.42808 0.0483814 0.38244 -0.262743
40 2 51.0723 38.1746 40.3813 1.83159 -0.789282 -0.556925 0.446905 0.795186 0.0376293
41 1 8.65628 23.4763 19.986 -0.661521 -1.63342 2.87182 -0.314693 0.32914 -0.185049
42 1 -2.79989 54.9493 38.4141 0.208831 1.74757 -0.804686 -0.233527 -0.432338 0.263139
43 1 33.4927 3.66132 48.3443 -2.68546 -3.87503 2.15754 -1.0573 -0.970342 0.456943
44 1 46.5714 19.3838 15.1716 -2.49485 1.34467 0.890352 -0.102734 0.0954525 0.156065
45 1 23.1413 33.8616 53.3715 0.0491047 0.386904 0.600519 0.618974 -0.437356 -0.106253
46 1 37.6772 40.1137 -1.05299 2.48445 0.476021 -2.95991 -0.453818 -0.437443 0.436027
47 1 46.1535 10.8867 14.8125 3.16944 -0.0377669 -1.42075 -0.164256 0.425293 0.463309
48 2 12.3096 16.4973 19.3854 0.941199 1.36032 -1.31219 -0.0102381 0.498684 -0.363287
49 1 7.90983 30.4133 0.99299 1.62121 1.28012 -1.4268 -0.261693 0.825787 0.273982
50 1 34.4383 4.588 14.4444 -5.08348 2.98939 1.49886 0.672909 -0.269592 -0.607608
51 1 12.3119 32.4632 53.021 -1.11868 1.28486 -1.54086 -0.282795 -0.311185 0.134559
52 2 30.4264 29.4436 34.8758 0.82968 1.17735 3.62962 -0.14706 0.711418 -0.35989
53 1 36.0051 37.097 11.3031 0.696624 -0.226008 0.980836 -0.0177199 0.770057 -0.385987
54 1 34.7047 1.47863 3.92365 0.0549011 1.68447 -1.128 0.416896 0.331792 0.11089
55 1 33.9518 -1.63972 16.8999 1.27342 0.0110583 2.13291 0.800786 -0.501516 -0.211805
56 1 26.7974 26.1946 40.0253 -2.77451 -0.511296 -0.650505 0.101415 -0.203428 0.798981
57 1 -2.75879 50.8253 41.4855 -2.18557 -0.620571 1.14698 -1.11571 -0.11723 -0.289365
58 2 45.305 22.2281 -1.5333 -2.04016 1.34522 0.723548 -0.414874 -0.232605 -0.34241
59 1 21.2392 -2.32558 36.2941 1.47507 0.502667 -1.91746 0.471508 -0.432311 -0.034881
60 1 12.7767 6.77521 55.1741 3.36539 2.68081 0.114175 0.426128 -0.288599 -0.165339
61 1 35.8212 31.0543 33.3097 -1.10385 -0.417186 0.378768 0.134077 0.196609 -0.302779
62 2 17.7156 48.1045 37.7884 -1.90405 0.391516 -2.08708 -0.0373194 0.203723 -0.260486
63 1 41.7748 9.70222 24.2962 -2.24903 0.944508 0.393833 -0.680451 1.45856 0.169377
64 1 8.83724 5.56237 10.5398 1.31578 -0.377358 1.60666 -0.205758 0.627952 -0.371679
65 1 8.25565 29.6277 51.3961 1.3221 4.83806 -2.06015 -0.373916 0.198306 0.0847702
66 1 18.4406 53.5264 46.2941 -1.59407 -1.14704 -0.0181556 0.441741 0.736002 -0.338249
67 1 21.1159 12.5322 54.3764 0.158477 0.725723 -0.118704 -0.173553 0.835272 -0.595434
68 1 1.97031 22.0567 8.01944 -0.269554 2.79066 0.676154 -0.0666259 0.15311 -0.397574
69 1 21.713 48.317 53.6846 1.23635 -0.847693 0.51992 -0.413957 -0.681412 -0.036748
70 1 27.7368 49.419 23.1766 -0.72602 1.82021 1.13 0.242112 0.0393306 -0.680283
71 2 41.4956 26.3704 4.31158 -1.85274 1.4467 -3.53786 -0.33101 -0.107322 0.569949
72 2 47.8016 28.9374 50.476 -0.151594 1.55409 -0.018959 -0.544531 0.31786 -0.108394
73 1 8.42359 11.3462 27.7897 1.85394 0.893046 -1.46522 -0.27641 -0.857559 0.336438
74 1 36.3491 8.28546 -3.19033 0.146539 -1.21876 0.424589 0.227801 -0.261921 -0.574098
75 1 36.4025 22.8615 -3.08681 -1.79731 -0.771728 -0.51483 0.332218 -0.0668739 0.0321861
76 1 18.6088 5.56392 38.5702 -1.96217 -0.434329 1.0191 -0.212109 -0.430164 0.367655
77 2 14.9354 19.0287 -2.48662 -2.23294 0.60862 -0.540831 0.214028 0.276168 0.0873243
78 1 38.7209 -0.597957 49.2775 0.602758 2.68494 -0.24916 0.819365 -0.0654644 -0.454136
79 1 0.953938 39.1237 6.71274 1.35958 0.616642 -1.89391 -0.0696778 -0.103303 0.284551
80 1 39.6031 39.8526 -2.87762 1.19664 2.43428 2.3161 -0.208283 0.52583 -0.0326717
81 1 28.0877 36.2284 -0.243263 0.382196 0.447986 -1.73155 -0.518947 0.484292 -0.157121
82 1 48.7 -0.276974 38.7203 1.72061 1.32109 -0.812703 0.259294 -0.172308 -0.24729
83 2 52.5529 46.9476 13.9224 1.09564 -3.62959 1.36526 0.552646 0.155672 -0.405177
84 1 45.4023 7.59945 39.6082 1.49342 -0.379191 1.27884 0.381848 0.176889 -0.43405
85 1 41.0418 50.42 -0.91714 0.352021 -0.377023 -1.61621 -0.301487 0.18161 0.602851
86 1 39.3592 15.5272 7.14431 -1.90191 0.396573 -0.444604 -0.12959 0.569098 -0.0685559
87 1 21.7479 3.19492 44.5427 -0.955948 -0.345062 -0.916907 -0.187533 -0.0672681 0.128369
88 1 -2.63231 13.4049 6.07297 1.75236 -1.04074 0.154423 -0.632207 -0.616069 -0.00972512
89 1 13.3144 49.9135 33.7426 -1.24071 -1.93049 1.16188 -0.501363 -0.64234 -0.275899
90 1 45.4931 48.2382 32.2939 -0.0943098 -0.941975 -2.65817 0.330301 0.696449 -0.0854193
91 1 21.0735 29.8784 4.29576 4.43037 -0.939852 0.97103 -0.280102 0.321507 0.730318
92 1 55.8107 -0.393774 40.1437 3.71803 -0.851199 -0.153548 -0.42567 0.13377 -0.274391
93 2 19.8178 47.4585 33.0901 0.960887 -1.27679 -0.198307 0.104019 -0.0957207 0.146173
94 2 4.88945 47.5852 30.2188 0.71597 0.262138 -0.857324 -0.229304 -0.589682 0.0968722
95 1 52.0148 51.4828 29.0511 -0.573281 0.725049 0.572878 -0.602177 -0.0164834 -0.305059
96 1 43.2613 -3.31498 37.9857 2.40943 2.18445 1.2582 0.0559545 0.392055 0.395136
97 1 56.1276 28.0942 20.819 1.94364 -0.653593 -0.708951 -0.378368 -0.213274 -0.415964
98 1 11.2887 20.9615 15.9509 -3.22172 -3.64138 -0.329382 -0.200316 -0.314902 0.26009
99 1 8.64025 33.8697 26.859 0.216473 -1.12698 -0.916876 0.650421 0.30138 0.256021
100 2 54.7979 54.7182 11.8594 -0.266046 2.67519 -0.979275 0.385205 0.204111 0.528776
101 2 6.27561 11.0508 15.4606 -0.117997 1.75757 0.121593 -0.237663 0.287849 0.319477
102 1 43.1053 34.7812 54.0623 -2.04385 0.940189 -1.85706 -0.0336451 -0.138123 -0.441432
103 1 7.38118 52.1128 5.15735 2.26512 0.279026 0.89076 0.601338 0.572798 0.283035
104 1 30.5263 40.5255 37.0722 1.35624 -0.611212 -2.86967 0.0895874 -0.11653 -0.0272836
105 1 9.42762 41.0312 45.5991 -2.01286 -2.01195 1.35459 0.195923 -0.551086 -0.151565
106 1 7.61785 26.2322 4.71753 -0.450678 1.28571 -1.95467 -0.0581424 0.157063 -0.610657
107 1 26.111 7.50288 24.9679 -1.03824 1.54707 -3.57852 0.0975204 0.405547 0.0116403
108 2 0.681284 33.555 40.0048 2.60727 0.379838 -4.48072 0.466714 -0.0926469 -0.0836615
109 2 53.4622 -1.06777 28.7418 0.809849 -0.0911904 -0.49101 -0.047744 0.314758 0.363659
110 2 32.7766 21.7297 7.33742 -1.10258 -2.77801 -1.06552 0.275036 -0.786299 0.195897
111 1 42.4188 44.0764 24.681 -1.95587 -1.61995 3.08936 0.85856 0.229406 0.160197
112 1 17.5185 10.4006 40.5813 3.49866 1.60479 1.82966 0.240087 -0.483904 -0.0890694
113 1 4.61032 56.1881 44.1954 1.30056 1.14255 -1.03054 -0.504331 0.428553 -0.00350516
114 1 0.969994 51.8191 34.7179 3.26499 0.550191 -1.56395 0.607727 -0.525799 -0.4032
115 2 53.6044 9.26594 43.8134 -1.38551 1.20848 -1.61202 0.278191 0.698622 0.325236
116 1 11.8484 36.1062 34.176 1.4861 -2.40525 -0.263623 -0.460623 -0.196947 -0.479566
117 1 33.3854 29.5454 0.487642 -0.908435 2.7355 2.44596 0.477856 -0.319293 0.0836953
118 1 35.9399 -2.67775 43.3821 -0.748699 2.59821 -1.69789 0.157858 0.192927 -0.15348
119 1 -0.216279 49.0922 38.2747 3.43839 -0.820793 1.68577 0.0426136 0.2363 0.796472
120 1 49.7687 1.59129 -2.51274 -3.1091 -0.00657239 -1.63004 0.0240477 -0.12498 -0.456537
121 1 47.494 13.482 34.2169 -1.797 -0.127817 2.30833 0.377042 0.33585 0.409313
122 1 18.8409 22.5315 32.3971 1.15941 -3.48203 0.700205 0.444016 0.117091 -0.157095
123 1 25.8758 25.7847 22.879 -0.690229 -0.898528 -1.08388 0.39488 -0.230481 0.0343477
124 1 10.3868 54.1653 25.9273 3.29933 1.50945 -2.71773 -0.525691 -0.562853 0.165231
125 2 7.60274 27.7774 46.645 -0.0727046 0.219369 -1.19786 -0.190292 -0.456553 0.338647
126 2 32.243 22.6872 34.5059 1.77255 0.745997 0.292624 -0.1476 -0.470868 -0.205203
127 1 22.899 21.683 34.9405 -3.38209 -1.81621 -1.37032 -0.629762 0.185217 0.56129
128 2 54.3449 40.0831 7.12649 0.0200623 0.220992 -1.53096 -1.15939 0.0193063 0.0658788
129 1 32.0486 55.4565 44.0116 -0.533569 -1.27799 1.38066 0.301882 -0.416877 -0.567978
130 2 11.1802 55.4034 40.9115 0.00399963 -1.52204 -1.33862 -0.150137 -0.139355 -0.369768
131 1 11.6225 23.9009 -2.0706 -2.40669 3.5234 -0.866933 0.337855 0.374997 0.193535
132 1 22.3214 36.96 55.2776 -2.91079 -0.277211 1.16342 0.117838 -0.287295 0.668152
133 2 3.8207 24.8795 42.183 0.393996 2.23491 -1.36545 -0.152935 -0.468688 0.292008
134 1 18.6176 39.0557 24.498 -1.06288 1.89807 -0.208529 0.119764 -0.24544 0.551045
135 2 18.6805 3.57137 54.1405 0.362049 -1.91712 -0.197731 -0.609985 0.652481 -0.165072
136 1 53.3785 49.8721 27.854 0.87852 4.63528 -0.620395 -0.158944 0.326728 -0.549271
137 2 34.4558 50.085 20.5162 -1.16791 0.226804 0.884815 -0.306484 -0.33573 -0.183589
138 1 24.0985 22.8607 39.8896 -0.990045 -0.560608 -0.161564 0.977615 -0.134687 -0.188631
139 1 -0.843627 32.902 33.8701 2.08111 -0.686857 1.92717 -0.376573 -0.336714 -0.183314
140 1 53.5763 42.2742 37.9339 -0.269144 -0.0446707 -1.60581 -0.818233 -0.202367 0.0375133
141 1 20.9091 -0.672826 27.0135 1.52644 -0.00174665 -1.98725 0.334399 0.312864 -0.207754
142 1 14.7907 5.24945 41.175 1.20474 1.11384 2.62833 0.633299 -0.0250231 0.0859624
143 1 15.1647 22.5385 29.6413 0.808859 4.12207 -0.258709 0.217678 0.222436 -0.361585
144 1 26.6873 51.3634 38.0646 -2.79276 -1.00456 0.572071 -0.332808 0.279206 -0.451687
145 2 26.1213 -0.0582157 5.01517 0.473307 -1.60413 0.173647 0.515662 0.404909 0.0676698
146 2 55.4135 36.0751 26.1968 -0.961837 0.671707 -1.45972 -0.0274825 -0.231692 0.0634055
147 2 44.6535 53.1476 31.9466 0.755555 -1.01035 -1.07056 0.547569 0.182501 -0.212423
148 1 16.5871 14.7342 54.1232 -0.103831 1.20545 -4.12734 -0.143217 -0.203625 0.6521
149 1 -1.09608 32.0263 6.90364 -1.2859 -0.450284 -0.971347 0.0151588 -0.635371 0.193073
150 2 24.6386 29.7794 12.25 3.46562 0.560198 3.97562 -0.310205 -0.359556 0.0852561
151 1 11.8361 5.52553 19.5237 -1.9348 3.2519 -0.896483 -0.438944 -0.698476 0.0627271
152 2 42.7439 35.007 13.5648 0.951042 2.05258 2.89898 0.863987 -0.0690337 -0.0100662
153 1 14.1285 36.5658 37.8303 -0.45064 -1.48423 -0.136042 -0.231974 -0.0488947 0.0532821
154 2 20.7735 10.6305 18.923 -0.302851 -0.393747 -1.74423 -0.425875 0.00405364 0.152015
155 1 54.7961 0.928969 12.8992 -1.81656 1.9066 -0.181152 0.0861482 -0.244454 -0.0792101
156 1 55.7725 31.8984 3.47321 2.46374 -0.600403 -1.34327 0.490872 -0.218696 0.0757352
157 1 42.8468 53.5136 29.6031 -2.83356 -0.265789 -2.21016 0.401342 0.280836 0.178744
158 1 18.0663 32.3612 25.9941 -1.98263 -1.93051 -0.252084 -0.58419 -0.37449 0.749507
159 1 40.0697 22.8212 47.3684 -4.07046 0.0831539 -2.41108 0.160647 0.0991771 -0.301392
160 1 44.9898 29.5513 45.7717 -3.45849 -3.79638 -0.124427 0.240405 -0.119792 -0.221097
161 1 37.4508 39.9432 23.768 4.35401 3.07473 -1.74655 0.137486 0.292807 -0.776886
162 1 48.1787 51.9162 42.2497 1.05908 -1.03347 0.900782 0.251496 -0.378276 -0.101665
163 1 38.9781 9.41765 -3.23933 -1.25831 -0.995721 -1.37441 -0.334896 -0.306768 0.138881
164 1 37.8051 28.0288 25.2563 1.14789 3.39228 0.420816 0.132415 -0.0522385 0.211595
165 1 6.68051 11.0328 10.7121 1.23264 -0.514653 -0.256103 0.0905555 0.305619 -0.165176
166 1 16.5885 42.2741 21.4891 1.71166 -0.00689139 -0.602103 -0.537913 -0.160796 0.088003
167 1 55.3951 49.7325 37.1863 3.86875 -0.422418 -0.712626 0.281151 -0.0328162 -0.0503585
168 1 18.4394 44.5497 8.58294 3.50683 -0.0549641 3.17806 0.333176 -0.931717 0.143853
169 1 42.0342 41.4351 38.3217 1.72653 1.18979 0.344657 0.141736 -0.351496 0.320192
170 1 12.6088 26.2337 46.1794 -3.91393 -0.167765 -1.14211 -0.146345 -0.127566 -0.580105
171 2 30.0023 25.5303 32.2779 -2.00176 -0.106274 0.817277 0.220796 0.24219 -0.279906
172 1 -3.58857 5.20105 34.3525 -0.177271 0.336651 -0.183099 -0.431092 -0.10001 -0.662594
173 1 52.9006 -1.39174 -2.41929 -0.704007 -3.65399 -1.13555 0.269741 0.373579 0.550428
174 2 22.1948 2.30338 0.610782 -0.667459 0.433827 1.5028 1.10464 -0.270402 -0.0387258
175 2 13.5517 30.4582 38.2088 1.60463 -1.97933 -0.308047 0.464491 0.256031 -0.166285
176 1 24.3588 25.7842 2.52839 2.62478 -0.910498 -0.13055 1.0091 -0.0130347 1.25972
177 1 47.5656 13.1937 -0.649038 0.586212 -0.525774 -2.03416 -0.545676 0.0543778 -0.222568
178 2 8.68691 41.6361 39.6277 -1.31384 -1.19872 -1.03338 -0.0789584 0.0699615 0.326688
179 1 8.79125 33.6099 35.9606 2.19203 -3.41759 2.02552 -0.00879272 -0.157011 -0.302646
180 1 10.5695 5.30248 45.2082 -3.52004 0.836789 -1.89511 -0.718227 0.58154 -0.292555
181 2 38.8374 -3.36781 1.46594 -3.23541 0.208838 -0.562308 0.201416 0.143046 0.257355
182 1 12.0452 28.8982 29.7541 -2.47586 -4.21715 -1.67683 -0.475957 0.431626 -0.251975
183 2 0.854768 49.6232 53.6947 -1.29769 2.82854 -1.26278 -0.541553 -0.110546 -0.51644
184 2 35.7178 5.52172 17.1159 0.923559 3.37786 0.0142266 0.240211 -0.0171602 -0.521143
185 1 43.0303 -0.451464 -3.45298 -1.84862 0.747961 -0.768336 0.822068 0.0253492 -0.661449
186 1 53.6635 46.5195 20.4509 1.75573 -1.94707 -0.341359 0.0599692 0.35904 0.191246
187 1 33.9407 49.8738 50.6778 -0.953825 1.67395 0.286658 -0.00683562 0.402478 -0.501667
188 2 5.45759 31.9196 1.98898 -1.63767 0.0808968 -1.2511 -0.522242 -0.919025 -0.268677
189 1 14.3405 47.703 50.6639 1.50776 1.13137 3.6133 -0.751414 0.111435 0.883414
190 2 -2.95671 0.480496 49.5987 0.669026 1.95416 1.43385 -0.201058 -0.427488 0.676181
191 1 26.4308 9.7861 46.1528 0.00468692 0.987511 0.153406 0.501364 0.50056 -0.265498
192 2 24.414 49.3767 38.897 -0.808079 0.78502 -0.492276 0.373372 -0.0220296 -0.0250629
193 1 30.9033 46.7726 1.77092 1.9452 0.330951 0.030659 0.145365 0.477996 -0.27611
194 2 43.3263 44.6221 47.8173 0.572142 0.290152 3.05349 -0.205272 -0.106647 0.478997
195 2 18.7144 42.2314 32.2625 -1.83696 -0.669362 -1.28599 0.118629 -0.305112 -0.336942
196 1 26.8755 0.449806 7.47697 0.944749 -1.12753 -1.14602 -0.156313 0.0611323 0.0922813
197 1 1.91951 24.6102 30.7231 -0.034957 -2.15138 1.28949 0.130011 0.250333 -0.464792
198 1 34.0471 15.1865 41.9423 -2.66184 -1.5537 1.99892 0.333788 0.196328 -0.133865
199 1 23.6735 -1.46103 12.8112 2.29738 -0.418784 0.531086 0.501093 0.0247162 -0.339655
200 1 38.6889 16.8201 -0.276632 -0.0970594 -1.48297 -0.190582 -0.139172 0.977513 0.838036
201 1 55.1636 5.11156 10.5587 0.578954 -1.31617 -1.35026 0.12735 0.0205573 -0.253043
202 1 46.825 -0.846809 37.029 -0.711186 1.51864 -1.5273 0.0464957 -0.110783 -0.0211843
203 1 21.5044 0.128772 36.8849 0.424823 -4.13007 -1.93959 -0.662691 0.296327 -0.253151
204 1 17.5841 38.3231 40.2413 -3.82349 -1.06565 2.0579 0.326196 0.360188 -0.0620716
205 2 13.8123 2.11502 54.0713 0.659641 0.226999 -0.948317 -0.352444 -0.0141199 0.0248084
206 1 48.3894 25.7476 27.2411 -2.91547 -0.125698 -3.69575 0.726425 -0.0847433 -0.263745
207 2 0.484407 52.7294 6.8367 -1.70838 0.451228 -0.744163 -0.439415 0.370926 -0.344744
208 1 27.657 1.26882 -3.39068 -1.17526 -0.912056 -3.03802 -0.356394 -0.157388 -0.199809
209 2 28.4399 9.62678 -2.85967 1.70924 0.743557 -2.22102 0.159872 0.422244 -0.276199
210 2 1.12264 28.7746 31.9973 -0.865205 -2.16045 -1.89068 0.129129 -0.297846 0.414994
211 1 36.1894 17.1819 28.2126 2.25127 -2.32381 -2.53928 -0.334744 0.148715 0.331738
212 1 3.30204 23.0152 37.5378 -1.296 -1.26242 0.600554 -0.533119 0.237921 0.443836
213 1 5.00406 16.6805 0.627723 6.47288 -1.03586 4.6411 0.154579 -0.112497 0.427168
214 1 51.6194 12.4772 19.2544 -1.27599 -2.1142 0.769928 -0.247767 -0.0455361 -0.578972
215 2 4.54885 19.2826 19.6873 -2.00366 -2.71397 1.0758 0.225176 0.13421 -0.198159
216 2 48.7405 39.7453 33.4052 -0.0360126 1.0362 0.346393 -1.23538 -0.659168 -0.577208
217 1 37.006 13.8575 33.2113 1.78237 1.75155 2.13409 0.532348 -0.348614 0.525277
218 2 36.3376 11.9081 44.4358 -3.20336 0.846228 0.848574 0.772792 0.0437142 0.456839
219 2 32.5225 50.1516 25.1001 -0.426997 -0.90095 -2.62136 -0.286932 0.746646 -0.290304
220 1 41.4232 5.26055 41.1984 2.20737 -1.00431 -3.59258 -0.0545397 -0.790205 0.0893067
221 2 51.5838 29.3102 54.0096 1.14216 0.395288 1.28338 -0.868514 0.211733 0.00368828
222 1 43.847 13.5741 44.4005 -4.19689 -1.03415 -0.0512651 -0.301781 -0.225107 0.287749
223 2 18.8095 8.05888 52.5678 2.39057 0.699084 -0.225671 -0.273438 0.273157 -0.869842
224 1 2.25797 17.6177 18.8736 1.03833 -0.0611127 1.91466 0.155089 0.196181 -0.0129822
225 1 28.6299 50.6116 27.7488 -3.37597 1.26651 1.4046 0.809279 0.178642 0.344005
226 1 26.1177 48.9862 37.0741 -2.54601 0.204495 -2.07837 0.567881 9.01306e-04 -0.13212
227 1 50.0021 30.1534 28.9776 -0.816474 -5.30865 0.511355 1.00223 0.269806 -0.457062
228 1 6.24143 2.43526 28.292 2.4359 1.71744 0.433962 -0.072231 0.280944 0.137706
229 1 1.10574 50.8567 20.6374 1.81196 1.80003 2.70704 0.0193344 -0.120174 1.22102
230 1 4.16034 6.42421 -2.59507 4.00263 1.77637 1.40339 0.588331 0.496494 -0.336898
231 1 46.0109 10.7138 28.1768 2.68228 -3.7205 -0.197809 0.355573 0.22767 -0.189172
232 2 10.2266 2.4954 45.0765 -0.416599 -2.57923 -1.72298 -0.642991 0.0598409 -0.582199
233 2 16.3952 39.8397 45.8097 -0.764638 -2.864 0.0628762 -0.438774 -0.0735176 -0.551603
234 1 38.3827 31.4901 8.72115 2.69655 -0.0324034 -0.886072 0.807697 0.0185753 0.489239
235 1 24.5154 45.8652 23.5678 1.40578 2.17921 -0.272206 0.165404 -0.162313 0.14856
236 1 14.8574 48.107 8.37838 -0.019603 -2.22587 -3.73615 0.282543 -0.556088 -0.62958
237 1 52.2306 -0.156385 47.0143 -0.0294801 -1.43782 1.67932 -0.0871022 0.409806 -0.0406382
238 1 -2.76734 12.7797 8.55913 -0.496986 -1.92084 1.82463 -0.242131 -0.623558 0.0857766
239 2 7.62154 49.4517 26.3035 -1.525 0.254153 -1.53385 0.0143713 -0.395197 0.301451
240 1 18.1629 40.158 36.3129 0.775814 -0.958369 -1.64624 -0.0667979 0.576377 0.306568
241 2 35.4756 -2.0645 25.2729 -0.61111 1.78936 -1.05127 0.431787 0.140234 -0.346571
242 2 34.9052 10.5065 42.137 1.51024 2.06301 -0.73104 -0.0313557 0.148956 -0.514917
243 1 38.164 26.3527 27.3524 1.14894 0.295577 -1.18553 0.278882 0.709454 -0.0894533
244 2 27.3474 -2.89179 23.7483 2.27916 0.0705977 1.04988 0.299664 0.00489568 0.815145
245 1 55.4713 55.4102 42.0564 -1.51609 -0.534147 -1.70501 -0.240649 -0.225035 -0.188787
246 2 24.5492 -2.94146 41.6145 -3.03261 0.223959 -0.888039 0.779804 0.464566 -0.337624
247 1 46.8482 44.7521 24.4979 -1.46962 -0.816204 0.521286 -0.104855 -0.0596487 -0.362066
248 2 40.75 -2.67818 24.5114 3.22719 -2.1663 -2.8237 -0.158184 0.365185 -0.372451
249 1 42.2942 31.3964 3.27182 0.523787 -1.64026 -2.2437 -0.504185 -0.5626 0.00140777
250 2 25.4536 39.7156 50.0947 -0.671389 -0.831779 -0.207987 0.485916 0.370151 -0.0703567
251 1 4.15417 1.03319 -1.68099 -1.55664 4.26427 1.82342 -0.334592 0.0256475 -0.244468
252 2 23.2986 41.1595 4.30815 0.58404 2.71232 1.74917 -0.359827 -0.276998 -0.350157
253 1 45.3024 37.4897 18.1444 2.94272 1.95961 -0.807479 -0.150121 -0.34596 -0.811749
254 1 55.1763 13.8892 34.6522 -0.516535 5.6681 -1.27049 -0.109852 0.1137 0.0442266
255 1 35.6343 -3.67998 50.4921 -1.17762 0.964922 -2.17939 -0.183869 0.311668 -0.628373
256 1 32.3508 16.3506 6.7498 -2.1622 -3.83275 1.08123 -0.843684 -0.62563 0.0593996
257 2 15.5739 10.6425 6.79165 2.2059 0.692177 0.889596 -0.110848 0.148497 0.351366
258 1 -2.04242 42.5282 14.6047 2.90534 2.83911 -3.67791 0.267931 -0.374828 0.0708066
259 2 46.1505 50.4998 33.4495 -0.354801 -0.346354 1.10008 0.244141 -0.0969764 -0.197485
260 1 -1.19325 10.9513 45.5356 -0.655175 1.96783 -0.0435025 0.281753 -0.38087 0.944112
261 1 53.0068 52.7269 39.2945 0.945605 -3.30209 0.795606 -0.206979 0.367833 0.0219376
262 2 22.9362 1.35423 47.03 1.14375 -3.99729 -0.922504 0.23808 0.0820841 0.0429085
263 1 22.5929 20.549 24.8431 -0.271311 2.81295 1.93073 0.39807 0.553224 0.15702
264 2 49.427 34.6879 38.4574 -2.20085 -3.09676 1.24132 -0.389297 -0.218176 0.248088
265 1 13.792 29.8484 43.5009 0.417608 4.67794 0.271959 -1.16104 -0.355059 -0.282325
266 1 12.7232 2.949 36.6275 1.68024 -5.02071 3.49465 -0.136123 -0.464022 0.452869
267 1 52.9396 35.7098 54.3018 0.588233 3.27031 -1.89471 -0.625254 -0.723907 -0.261347
268 1 29.7231 32.429 34.5419 -1.15666 5.71202 0.305577 -0.0702724 -0.255947 -0.6542
269 1 46.2615 13.3579 44.956 1.90433 0.507904 1.12169 -0.0122235 0.277475 0.0118664
270 1 46.9585 26.9575 28.8082 0.291922 -3.43884 0.981198 -1.03114 -0.0688546 -0.0958204
271 1 9.58 29.2274 45.3792 2.40021 -1.02143 0.662619 -0.288774 0.293953 -0.757822
272 1 27.1933 38.3828 13.1254 0.945661 0.567874 -0.448118 -0.0319137 -0.24716 -0.00849775
273 1 19.8877 30.0713 52.4095 -1.70825 2.43689 -1.11389 -0.731026 0.50222 0.494151
274 1 14.9438 -0.262591 53.1352 -2.13797 -2.30372 0.555836 0.218717 0.146711 -0.207544
275 1 26.0931 10.0072 53.4125 -0.0886749 1.09687 -1.42852 -0.608782 0.167079 0.298452
276 1 2.26899 39.3611 37.4187 0.396847 2.18434 0.806731 0.0241963 -0.484136 0.859543
277 1 16.8988 51.5369 33.876 2.26229 -1.39188 1.23953 0.302372 -0.388482 -0.160976
278 1 6.61743 -0.471592 45.2636 0.848765 1.48791 -3.24268 0.406032 -0.45289 0.177151
279 1 38.5158 52.3626 14.1761 -0.982071 -4.34228 0.990647 0.482493 -0.401405 -0.489896
280 2 25.8422 9.22293 18.667 3.16116 2.22323 -0.153694 -0.0665561 0.246843 -0.641083
281 2 41.4104 23.8962 51.6987 0.502189 0.371062 -0.901975 -0.244537 0.471033 -0.363887
282 2 17.0874 42.7969 38.2351 -0.231842 -0.964153 0.0358642 0.55432 -0.428533 0.238579
283 2 44.7519 -1.44541 10.8637 0.649574 -0.382298 0.862529 -0.252793 -0.467652 -0.700169
284 2 18.792 52.0887 19.8019 -2.32544 -0.0693427 -2.29004 -0.0625483 0.117641 -0.32508
285 1 48.1662 6.01658 36.3072 -0.599205 2.2822 1.863 -0.318659 0.102019 -0.453529
286 1 20.1026 56.0992 13.6643 0.451092 0.891207 1.88895 -0.2844 -0.484962 0.514248
287 1 45.2194 47.8667 22.243 -3.47156 0.151868 -2.20104 -0.42173 0.530009 -0.356889
288 1 13.4988 43.4408 44.7991 0.595085 -3.86293 0.443428 -0.399846 -0.662912 0.12977
289 1 2.4872 8.16098 29.4092 -1.24635 0.378674 -1.24033 -0.512648 0.163228 -0.0386432
290 2 -1.08942 45.7368 3.01601 -2.96986 -2.74896 0.95984 0.127575 0.263932 -0.163293
291 2 17.1519 36.6964 23.921 2.40179 -1.2333 0.231953 0.0419399 -0.344744 -0.446321
292 2 13.6207 -1.70882 22.816 0.522715 0.693178 2.54803 0.817754 0.749034 0.268916
293 1 3.5529 51.0745 3.50914 -1.84459 -0.959641 0.0103049 -0.0369843 -0.802052 -0.291588
294 1 34.4838 44.6456 6.64446 0.463179 0.146753 -1.07048 -0.0485811 0.483568 -0.223355
295 1 13.485 17.762 12.1662 1.59399 -3.64789 -1.18446 0.177397 0.0371691 -0.0129259
296 2 23.2933 44.8917 8.44968 1.31295 2.02233 0.593924 -0.459897 0.327555 0.281925
297 1 29.8006 18.6702 49.7251 0.284727 -2.37374 2.7703 0.383451 -0.496694 -0.610764
298 1 38.3054 13.5832 45.4717 -0.649944 -1.1176 2.30279 -0.116045 0.0122432 0.196956
299 2 9.74591 9.75265 22.2746 0.967552 2.01002 0.361533 0.0737917 -0.145897 -0.250404
300 2 52.3559 37.8137 6.20419 1.59571 -1.65896 -0.232123 -0.296911 0.231229 0.690605
301 2 0.92018 4.83379 -0.977557 0.738712 -1.2287 1.99015 -0.543548 0.642234 0.513641
302 2 1.12284 47.5111 49.2418 -0.475441 0.557285 -1.57858 0.0546838 0.671238 -0.0471572
303 2 39.4112 3.60587 28.6035 1.4869 1.69206 -1.86897 0.00920076 -0.795188 -0.237052
304 2 55.77 49.1557 34.5066 2.05334 -1.15143 0.327053 0.868588 -0.775337 0.0595531
305 2 23.5632 -0.131471 -1.11539 -1.80232 -2.11349 0.965561 0.256867 -0.416335 0.0141661
306 1 25.6834 41.0428 22.1218 1.56858 0.674446 -2.56531 0.481621 -0.480865 -0.134168
307 2 35.1261 6.92737 39.4889 -1.76245 -1.70391 -1.00584 0.453508 -0.113024 -0.239832
308 2 3.64424 53.0859 7.06681 -1.0229 -2.89385 -2.19343 0.097488 -0.0650451 0.477611
309 2 13.1896 32.6842 9.85514 -2.21191 -0.594898 0.83664 -0.00676971 -0.200075 0.113247
310 1 40.1241 5.77371 8.19363 -0.0725517 0.0590309 1.06743 0.0998697 -0.519125 0.0522556
311 2 37.9546 43.4711 20.0215 0.0145185 -1.07369 -4.0757 0.406551 -0.123196 -0.18783
312 1 37.8445 6.4299 53.1518 -0.71364 -0.593806 -2.09251 -0.294614 -0.180068 0.203874
313 1 21.6538 5.13156 49.3792 2.5901 -4.15324 1.47068 -0.244767 -0.168553 0.166713
314 2 54.0929 23.7902 19.4281 -0.962409 2.75645 1.51945 0.511114 -0.138854 0.322458
315 2 19.6898 17.4978 49.0856 2.08659 -2.84142 -2.36595 -0.495873 -0.537324 -0.33632
316 1 -2.28696 55.3994 10.0421 -1.17879 -0.527637 0.244224 -0.336537 0.0141802 0.267853
317 1 9.75391 21.294 45.746 -0.317895 -3.41461 3.34478 -0.373433 -0.447016 -0.0750053
318 1 -3.49101 -2.21665 41.8753 -0.115937 1.09751 -1.30664 0.336873 -0.0530098 0.0418784
319 1 13.2042 52.6386 30.6355 4.1317 -5.01552 -4.09302 0.278374 -0.00241989 -0.705275
320 1 16.2264 45.4441 29.1232 1.3322 1.11518 -0.382535 -0.103855 -0.397775 0.0793398
321 1 16.0393 15.3067 20.265 4.11013 -0.344626 1.90071 -0.147149 0.370269 -0.987992
322 1 6.24218 47.1067 18.1465 -1.88379 -1.04575 -1.75808 0.0988787 0.139852 -0.0275525
323 1 1.52447 41.2685 42.4548 0.481678 -0.391469 0.39207 0.415965 -0.406743 0.215892
324 2 12.4187 28.8388 16.317 -1.7224 -0.576116 1.85098 -0.371505 0.641133 -0.0266133
325 2 26.0797 46.4318 7.80503 0.977148 0.192115 -0.779447 0.0221494 -0.148206 0.405408
326 1 43.6644 33.9487 15.9889 2.97931 -1.29489 -0.136913 0.12685 0.457389 -0.621073
327 2 46.3303 38.4384 11.412 1.88973 -0.293276 3.67841 0.733576 -0.407868 -0.474757
328 1 16.8205 12.4705 23.7234 -1.88901 0.482459 0.706893 -0.404255 0.113709 -0.00790239
329 1 31.8658 4.72674 20.1824 3.09008 -1.14895 -2.15016 0.44006 0.441031 0.0727617
330 2 20.1161 24.7341 15.0855 -1.31469 -3.30998 -0.883935 -0.0413322 -0.0121602 -0.404842
331 1 32.4357 -2.36349 2.07132 -1.95611 -1.5449 -0.571424 -0.0431867 0.0904917 0.349554
332 2 36.2378 54.7398 24.7045 -3.65514 0.893089 1.44574 0.0755425 -0.294543 0.131575
333 1 27.5252 52.7613 5.41768 4.05047 -1.61639 -1.62994 0.275567 0.0463136 0.217628
334 1 38.9607 51.5738 44.5327 -0.0058338 -2.3055 -2.19336 -0.0428228 -0.0664161 0.256473
335 1 49.3856 52.6294 -1.59002 3.37993 -0.0629301 2.43989 -0.638358 4.23014e-04 -0.0766524
336 1 45.2948 19.5281 13.0388 0.704466 -0.201946 2.02882 -0.429369 -0.180687 0.0318622
337 1 -3.0383 -2.37419 55.9466 -1.93212 3.87282 -1.85178 0.316333 -0.66321 0.440634
338 1 18.4849 48.567 47.5771 -0.799074 0.606336 -2.65036 -0.0471458 -0.167209 0.0831154
339 1 19.6098 18.507 8.52936 4.17925 -0.152788 -3.42716 -0.155828 -0.227823 -0.147146
340 2 0.325022 37.8084 16.7885 2.30595 0.991503 1.52727 0.526485 -0.364422 0.144883
341 1 49.5877 48.2341 55.3822 -1.97118 1.41002 0.70298 0.471802 -0.158828 -0.65485
342 1 14.1633 48.9211 40.562 -5.90623 0.187121 0.0327146 -0.00671106 0.529379 0.218679
343 1 23.0104 28.612 49.4537 0.275383 0.309346 -1.24658 -0.511761 -0.0116641 0.182028
344 2 31.2868 8.15892 31.0057 2.62068 -0.699585 -0.446057 -0.474675 -0.492061 -0.0345491
345 1 20.1349 9.36642 16.6112 -0.895496 -1.5454 -1.98079 -0.0652614 0.0953934 0.109223