ITEM: TIMESTEP
22000005
ITEM: NUMBER OF ATOMS
11664
ITEM: BOX BOUNDS pp pp pp
-0.0196313 59.4196
-0.0196313 59.4196
-0.0196313 59.4196
ITEM: ATOMS id type x y z vx vy vz fx fy fz
1 1 33.5919 8.91718 26.3317 -1.47897 -1.4436 1.24993 -0.584561 -0.288648 0.3496
2 2 36.4781 38.5016 24.869 -2.12137 1.14843 -0.469056 -0.215562 -0.0153432 -0.103522
3 1 23.8653 5.07203 59.424 -2.61757 0.505038 0.933435 -0.371668 0.36332 -0.127708
4 1 9.74143 54.012 22.009 0.317224 0.0900795 2.08787 0.669445 0.583652 -0.0734666
5 1 15.1655 7.93777 13.0533 0.704805 3.25718 -2.05357 0.31363 -0.189099 -0.933883
6 2 35.9523 39.0516 0.443131 -2.00185 -0.457728 -1.18274 -0.274155 -0.233617 -0.0855809
7 1 20.1546 1.88802 13.8135 0.903297 0.434441 -1.86813 -0.232429 0.45029 -0.0883497
8 1 19.0516 28.8138 20.6613 2.65181 0.145637 -3.50044 0.27777 0.566068 0.345831
9 2 43.7749 59.1836 9.92011 1.25901 0.937369 2.29236 -0.0879198 0.38683 -0.0647636
10 2 54.9895 11.7277 9.56629 1.10967 -1.61177 0.783503 -0.311327 -0.36502 0.222123
11 2 33.8222 26.8043 19.5373 -2.98784 1.04283 -1.29504 -0.0571339 0.0884348 -0.0837124
12 2 22.9473 55.2913 16.1099 -1.14366 -1.2915 0.524944 -0.645491 -0.276938 -0.226822
13 2 15.9661 22.5165 18.3041 0.306243 2.83667 1.82977 0.121007 -0.538532 -0.1304
14 2 20.2397 5.40063 7.58129 0.670058 -1.17337 0.946809 -0.19787 -0.34022 -0.0101681
15 2 52.6322 6.67007 36.6833 1.39648 -0.53924 -0.901871 0.815451 -0.288724 -0.156739
16 1 39.6785 42.592 53.4469 -0.939352 -1.71615 2.22749 -0.422891 0.260945 -0.1211
17 1 27.0427 23.0986 23.6978 0.356599 0.426416 -1.58081 0.31745 -0.0673022 0.0929629
18 1 0.673091 46.1508 47.0563 1.09708 2.02371 -0.352259 0.758061 -0.694033 -0.243618
19 2 33.4715 10.9882 46.2601 0.784134 0.217648 3.39473 0.100798 0.418134 -0.560288
20 2 1.57926 30.458 55.3205 0.806279 1.85623 2.91899 -0.0434072 0.144296 0.247874
21 2 3.98506 23.2168 45.2554 -1.26979 -3.22645 -1.16835 0.529966 -0.639372 -0.0736848
22 1 22.6953 5.15289 14.9628 2.26247 -1.83143 -1.87346 0.353475 0.179934 -0.312575
23 1 51.9108 2.99184 28.4299 -6.39704 -0.977867 4.10072 0.292882 -0.0307207 -0.231028
24 2 22.5056 5.83071 11.3991 0.596749 -0.977321 1.19995 -0.396671 -0.200251 -0.287604
25 1 58.9784 12.065 25.3773 -2.38984 -1.77551 -0.413691 0.041606 -0.23834 -0.210886
26 1 39.0384 16.7165 22.6424 -0.612555 -0.666665 1.46879 0.154757 0.391886 0.385922
27 2 56.4472 47.8718 16.6078 -0.53528 1.29101 -0.36856 -0.475832 -0.579495 -0.35967
28 2 31.5603 14.6224 25.0925 2.42132 -1.78408 -1.84446 -0.582714 0.043426 -0.156866
29 2 35.5857 58.1422 50.0892 0.9833 -1.655 -1.01246 0.110294 -0.829761 -0.48812
30 1 39.5536 24.7988 23.3449 1.21895 -0.934363 0.212838 -0.169333 -0.165886 0.311779
31 2 56.417 24.9091 12.3494 -0.271266 0.33652 -1.4433 -0.837534 -0.00797385 -0.114839
32 2 10.8267 32.2675 3.65446 -0.0341502 0.318149 0.114387 -1.15577 -0.576266 -0.730074
33 2 36.7422 13.3943 41.0085 -1.70467 1.33454 0.0949195 -0.0076981 0.462288 -0.413321
34 1 23.245 53.0607 32.1458 -0.33444 -3.13864 -0.646905 -0.273185 0.616295 0.42368
35 1 55.7927 15.5267 31.206 -0.854286 0.598604 1.8088 0.696877 -0.329079 0.102919
36 2 48.5627 49.7588 31.7009 3.17509 1.42268 -0.084209 0.278531 0.296755 0.0414177
37 1 33.0081 17.3895 31.7325 -0.535859 -1.28733 0.728044 -0.0778095 -0.142015 -0.0403089
38 2 44.5828 15.1857 11.2261 1.78322 -1.65221 -0.335695 0.142188 -0.0353221 0.0141483
39 1 53.8349 55.1478 18.4251 0.136272 4.33494 -1.75943 -0.73074 -0.365017 -0.218014
40 1 29.3744 54.8649 24.9795 0.832877 -0.569563 0.846974 0.629621 0.158279 0.568475
41 2 50.6906 51.9065 55.1009 3.07427 -0.989754 1.64519 -0.15573 0.0763765 0.20006
42 1 44.3704 2.94223 53.8728 -1.32379 -0.478487 -0.750123 -0.0208668 -0.187285 -0.260096
43 1 5.24393 11.4752 45.4932 1.65255 0.952449 -1.38625 0.274825 -0.291968 -1.08583e-05
44 2 42.221 38.8078 33.5305 2.03991 -1.40149 -1.24551 -0.0763841 0.134927 1.00586
45 2 44.7665 37.9348 31.9587 -0.640153 -0.652174 -0.669162 -0.437809 0.079599 0.116335
46 1 41.4546 58.1338 55.7814 -0.460732 -2.35132 -0.234278 -0.346531 0.232394 0.151141
47 1 48.2684 12.6097 24.3752 1.47046 1.05194 1.15839 0.234482 -0.212659 0.0965476
48 2 40.1457 46.3331 38.5778 -1.73115 -0.992692 -3.5468 0.907887 -0.603878 -0.0312423
49 1 27.6376 51.9766 45.1987 -4.53583 0.873206 -0.350409 0.0354254 0.31954 -0.356354
50 2 19.3692 47.7253 56.578 -0.165285 -1.49649 -0.599685 0.136834 0.511094 -0.16753
51 1 15.5283 2.65212 45.5881 -0.105443 -0.0498852 -0.932304 0.150172 0.21443 0.232467
52 1 18.7061 45.6346 49.2356 -1.156 -0.789333 1.78795 0.246274 -0.24879 -0.333962
53 1 10.6925 27.6106 6.6599 1.21406 0.0926339 1.3404 -0.13955 -0.265318 -0.118797
54 1 32.7649 12.8986 52.9579 0.0987998 2.41993 0.132379 0.441089 -0.8032 0.46876
55 2 52.1649 25.5532 29.3616 -0.5507 1.10377 2.29603 -0.444229 -0.207643 0.25127
56 2 22.1348 59.2759 56.4053 0.481047 1.48038 2.09269 -0.29464 -0.0515908 -0.122161
57 1 45.6817 21.4932 43.8417 3.95415 0.289454 2.10903 -0.447969 0.153247 0.0935555
58 2 37.5158 54.1036 55.4577 1.70755 0.801987 -1.14517 0.710967 -0.469209 1.1178
59 1 20.2194 4.26016 2.69398 -0.237013 -0.361742 0.545551 0.40109 -0.173372 0.0811043
60 2 10.5927 9.36537 17.811 -1.79957 0.68742 -0.897168 -0.0497696 0.409987 -0.336767
61 1 24.3818 39.6598 22.3341 1.95825 -0.892724 -3.97118 -0.186086 0.183943 0.17301
62 2 57.629 26.6533 1.30465 -0.297783 0.691636 2.35055 -0.0886177 0.0101606 -0.178844
63 2 50.1458 22.8591 40.9185 -3.45459 -0.648262 3.2341 -0.265089 -0.171512 -0.286683
64 2 5.6691 32.273 29.8601 2.18679 0.410087 2.4135 -0.32024 -0.0185909 0.201447
65 1 27.5436 15.0762 13.5385 0.25427 -2.6352 1.6176 -0.472989 0.0223306 0.442599
66 1 37.5365 25.409 31.2361 1.11635 4.54527 -0.352542 -0.701459 -0.707083 -0.240785
67 1 35.9891 34.7752 52.6279 -5.18132 1.50583 -0.182501 -0.196216 0.335101 0.361024
68 2 43.874 46.0567 57.847 -0.0216228 0.509291 2.25507 -0.534734 -0.4541 -0.238699
69 2 23.5897 55.7428 30.4894 1.12156 -0.299322 -3.81894 0.216659 0.652526 -0.784278
70 2 16.3189 17.3932 18.0652 2.33897 -2.22349 0.0903144 0.827993 -0.662657 -0.00514145
71 1 20.3654 4.61643 10.172 -2.15486 0.130396 0.991699 -0.569595 0.0320721 -0.264526
72 2 5.01523 42.5873 12.0931 1.13189 0.485599 1.85672 -0.0456338 0.0100859 -0.366893
73 2 42.9984 12.6737 50.34 0.660342 -1.56532 -0.465179 0.289961 0.113337 0.229133
74 2 26.7253 22.0416 50.0226 -0.734491 -1.39486 1.4647 -0.114363 -0.180849 0.222788
75 2 29.737 57.5627 31.8055 0.898251 -0.828248 1.34999 -0.549075 -0.878888 0.0403185
76 2 19.7894 55.242 56.3933 -3.58332 -1.65091 -0.173431 0.789963 1.02911 0.634381
77 2 12.9987 22.3676 27.849 0.653194 3.05707 -2.20421 0.130527 0.279934 0.107716
78 1 3.42918 19.7502 19.5805 1.07491 -1.34502 -5.22111 -0.193355 -0.645081 -0.00171196
79 2 51.975 10.9402 29.5886 -0.644075 -1.91375 -2.42762 -0.765587 -0.30221 0.763756
80 1 10.6116 20.3151 23.8815 -3.11433 -1.74289 1.01663 0.1347 -0.46353 0.090818
81 2 5.08483 45.769 27.0203 -0.545339 2.14183 0.012308 -0.699049 -0.520514 -0.145679
82 2 31.8234 17.3831 56.0971 -2.0561 0.0810519 1.64067 0.370669 0.162618 0.0616023
83 2 7.07085 39.4864 31.6837 -2.80676 -1.41868 -0.968399 -0.0591855 -0.562671 0.422469
84 2 45.2978 27.9161 45.9399 1.97604 -2.17269 1.28266 0.0056856 -0.254414 0.65867
85 2 54.3117 12.5708 52.61 0.0226709 -1.14384 -0.165992 -0.45624 0.510002 0.10741
86 2 6.95381 10.9259 3.55622 0.3125 -0.378971 5.03494 0.272951 -0.595125 0.174382
87 1 12.0864 11.8673 22.2146 1.61555 -0.476441 0.719008 -0.263362 0.259231 0.0509968
88 2 22.0843 59.1146 34.128 -2.03542 -0.0635205 3.36658 -0.493566 0.074509 -0.873079
89 1 28.2569 12.7434 46.3573 0.832714 0.72129 -2.62898 0.717195 0.0394231 -0.481574
90 2 35.2277 55.8833 4.46926 -0.559539 -0.984056 -1.68011 -0.0312703 -0.0249975 0.232158
91 2 3.80879 49.3222 21.7324 -1.72627 -1.43665 1.05484 -0.812333 -0.31003 0.31231
92 1 42.3847 7.43525 8.47207 0.117659 1.95136 -3.78074 -0.265625 0.272256 -0.537321
93 2 6.27948 46.7578 18.5192 -1.63538 0.177873 -1.27819 -0.637069 0.0506426 0.384703
94 2 6.32263 26.2468 37.4156 2.66015 0.0878614 1.93017 0.0021812 -0.12812 -0.0656084
95 1 26.1699 42.4981 52.5004 -3.43443 -2.4815 -1.43427 0.358004 -0.204292 -0.0636513
96 1 7.92699 36.5249 27.7995 -2.64475 -1.02227 -3.31389 0.452875 -0.933809 -1.27512
97 1 0.323709 2.41747 58.1021 -1.38793 1.49493 -0.408126 -0.502085 0.159279 0.0189139
98 1 18.4855 33.1239 1.45237 -2.05528 2.19807 -4.19452 0.111018 -0.0697029 0.151704
99 1 53.7913 1.91531 51.9328 1.86855 2.08773 -2.82955 -0.0191907 -0.314645 0.0212589
100 1 12.2129 40.4883 57.1957 0.925091 -2.95833 1.73613 -0.116147 -0.012945 0.286777
101 2 5.5058 44.613 40.3642 2.15098 1.46982 3.85937 -0.368107 -0.216652 0.229054
102 1 18.586 6.53188 49.5295 -0.542813 -0.644914 -3.663 0.568352 -0.519331 0.424912
103 2 40.6996 31.0503 34.7353 1.41339 -0.487477 -0.447442 -0.0510669 0.16477 0.669364
104 1 47.68 24.0967 20.1045 -1.68284 -1.59323 7.01656 0.188915 0.039923 0.173725
105 2 33.043 39.936 20.3942 1.76102 1.30348 -1.82848 -0.0570017 -1.3646 -0.0555422
106 1 30.747 0.362559 2.18011 2.76632 2.05418 2.98693 0.448899 0.344118 -0.141927
107 2 56.6781 16.8584 26.5601 -1.14887 0.894503 2.14661 0.627212 0.180874 -0.226579
108 1 5.62164 27.9165 27.6539 1.19488 -0.828498 -0.846243 -0.37842 -0.393676 0.357538
109 2 32.1554 20.2599 22.4295 0.952943 -1.14598 0.0200127 -0.179912 -0.851983 0.125928
110 2 37.5868 0.279634 30.3447 0.175865 0.923602 -0.938497 0.174073 0.279616 -0.194335
111 2 8.72631 55.6372 24.1217 -0.024235 1.8927 -2.12965 0.318634 -0.113971 -0.321837
112 2 54.5081 30.6198 20.3213 -0.174569 1.10694 -0.0792801 0.434173 0.018531 0.544988
113 1 20.4504 15.588 52.5148 -1.17999 1.47588 2.18247 -0.457904 -0.0806874 -0.0953075
114 1 14.6848 13.0389 31.1117 -1.84703 -0.547065 -3.12027 0.154371 -0.326567 -0.439613
115 1 46.3556 47.4885 58.0075 3.58918 -5.91354 0.772669 -0.252536 0.491779 -0.238615
116 1 45.1555 42.8975 22.0588 -1.64651 -1.20138 -0.460057 -0.449001 -0.433716 0.525409
117 1 23.6819 27.6695 31.8141 1.66985 -1.19591 0.973937 -0.0411468 -0.0869346 -0.165384
118 2 1.97915 47.1992 56.7572 -0.598817 -0.177268 -1.09095 0.380008 0.439781 -0.347377
119 1 52.436 57.434 39.581 1.78555 -1.93849 -0.67866 0.206733 0.219172 0.889006
120 1 41.4917 0.228375 52.0643 -0.885129 0.631287 -0.859849 0.570101 -0.167137 0.901648
121 1 24.0161 41.1915 38.0145 1.84815 1.29469 -2.94159 -0.505422 0.225798 -0.36684
122 2 53.5869 36.2115 33.477 -0.952481 -0.782123 0.699628 0.0266363 0.21613 0.440501
123 1 2.85812 12.4799 42.1392 -0.631417 2.53591 -1.2621 -0.245273 0.297071 -0.15176
124 2 39.3296 26.4615 46.844 -0.198865 1.85956 -1.79264 0.0354095 0.0548775 0.513657
125 1 50.9973 14.3168 40.9425 -1.262 0.311836 -2.83212 -0.312486 -0.196116 0.0317192
126 2 43.4874 39.2989 36.4355 0.408493 3.08709 1.60557 -0.385858 0.532971 0.21859
127 1 7.4444 40.9269 36.6781 -4.18273 3.77479 -1.13434 0.156147 0.073059 0.0538467
128 1 11.7946 15.9875 22.5135 -1.01764 2.74058 -0.0331536 0.280076 0.215202 0.103663
129 2 18.1554 3.05664 7.47244 -2.89729 1.19028 -1.15969 -0.408324 0.1116 -0.366291
130 2 55.7175 16.402 48.2574 -4.71017 0.26492 -2.68508 -0.253179 -0.600398 0.420106
131 2 20.5104 37.4638 41.1218 -0.885816 2.12407 0.400753 0.403033 0.0884048 0.208307
132 2 34.509 8.53852 9.27046 -0.382676 2.15573 2.0588 0.369195 0.23207 -0.385726
133 2 46.2302 21.3854 38.1921 1.55576 0.556902 -0.499161 -0.0207297 0.27789 -0.227396
134 2 58.6712 49.0112 18.2277 1.6697 2.49008 1.3575 0.440266 0.655454 0.123209
135 2 16.4835 54.1597 15.9977 1.31121 3.16109 1.39198 0.305668 -0.271666 0.380758
136 1 53.0547 17.8733 14.7131 -0.254696 -1.55455 -0.830732 -0.145513 0.0443301 0.442024
137 2 5.07857 44.9225 2.31045 -1.10555 -1.18261 -1.29648 0.510596 0.0258811 -0.329514
138 2 42.848 20.8586 18.1802 0.502954 -2.79535 2.01233 0.792974 -0.0727579 0.139454
139 1 10.9758 24.161 42.2839 -2.31174 0.674258 1.16872 -0.13802 -0.478041 -0.0428132
140 1 3.56433 8.05099 50.8105 -3.17842 -1.63435 -1.99772 -0.447209 0.13951 -0.326427
141 1 39.0519 42.601 10.5444 0.0570487 2.10862 1.33088 0.586735 0.751461 0.227159
142 1 16.662 31.2874 38.2042 -0.115295 1.05613 3.60268 -0.145681 0.0307516 -0.426819
143 1 56.0445 19.533 1.7377 -0.552498 0.97915 -0.984077 0.586153 -0.145312 0.438456
144 1 45.0429 8.73615 1.95893 -2.29141 1.22967 1.22182 0.288664 -0.512644 0.253148
145 2 16.3406 27.193 41.7313 0.717412 2.25101 -2.15449 -0.111077 0.138394 -0.200536
146 2 48.0724 25.1097 41.716 1.02068 0.357498 -2.61465 0.260748 -0.397335 0.0330782
147 1 36.3361 43.0917 50.0242 1.50152 -3.71303 -1.70324 0.658674 0.222584 -0.190098
148 2 49.6044 49.7688 20.3409 0.294358 2.14423 1.38712 -0.778771 0.424333 -0.44925
149 2 28.2646 48.3064 57.0207 -0.609388 -2.0504 -0.904569 0.162782 -0.0583004 -0.179355
150 1 40.967 12.3779 17.0644 -0.0635631 -0.533835 -2.3601 -0.193503 -0.0285608 -0.129924
151 2 1.08591 30.4375 42.1901 -0.684137 1.78071 0.461336 0.428681 -0.386482 -0.241231
152 2 45.0593 29.5391 32.4851 -0.54623 1.02017 1.61704 -0.229537 0.0782181 -0.439812
153 2 2.10336 59.4137 3.27778 2.79332 0.703622 1.30255 0.169422 0.138145 0.582116
154 1 33.7648 6.60227 40.3639 -0.732196 -2.90729 -2.27493 0.378454 0.485285 0.229437
155 2 4.56824 56.8278 18.3454 0.0840977 0.172083 0.155401 -0.523529 -0.0709593 0.228387
156 2 5.57918 6.54285 55.9798 -0.415024 -0.301295 0.243818 -0.10495 0.508437 1.72065
157 2 51.3707 43.2625 37.6325 3.56182 -0.920129 1.00288 -0.0211329 0.449236 0.262475
158 1 26.9283 9.41014 24.5975 -1.1427 -1.4017 -0.828052 0.541925 0.288674 -0.509582
159 2 50.0447 19.8723 56.7585 -2.52342 0.571578 -1.6041 0.0523842 0.515659 -0.539471
160 2 19.6718 55.3035 53.3862 -0.692345 -1.60924 -1.58975 0.757347 -0.0233083 -0.230136
161 2 2.38537 25.4175 52.41 -1.58924 -1.63419 -0.791234 -0.162297 -0.277158 -0.183372
162 1 8.73168 16.1985 27.1663 -2.50918 -3.84302 -4.21421 -0.101066 -0.342259 -0.0769591
163 2 5.19035 32.0947 1.46684 1.16197 -1.06605 0.524646 0.123573 -0.437256 0.202766
164 1 28.4382 40.5674 4.05011 2.13226 0.0677278 1.19328 -0.676665 -0.189639 0.168649
165 1 29.9953 50.4598 25.9183 2.5415 1.43504 3.39586 0.421328 -0.17481 0.0852628
166 1 21.2542 45.5572 57.3942 -0.6169 2.21372 2.828 -0.431294 -0.0586998 -0.169783
167 1 20.8018 9.77654 8.7941 2.1181 2.63466 -0.796696 -0.589739 -0.160882 -0.826304
168 1 54.9733 5.98173 2.44169 -1.41439 0.586977 -1.17286 0.228442 -0.298604 0.0806705
169 2 8.20077 6.30294 5.76462 -0.25925 1.15563 1.04668 0.181333 -0.171545 -0.226441
170 1 25.8507 30.9219 23.0393 0.38921 -2.27641 1.23614 0.304743 0.0389675 0.332171
171 1 53.2822 4.07238 16.9176 -0.859216 -0.646924 1.34284 0.0484123 0.162284 -0.680874
172 1 10.3446 37.409 4.01144 -0.601118 0.97586 -1.60474 0.211904 -0.289545 -0.0148459
173 2 47.1489 26.9913 27.5829 -0.612159 1.32653 1.83957 0.249395 -0.794357 0.206482
174 1 14.3996 14.3859 14.9514 -2.61714 0.579247 -3.0614 0.537413 0.102728 0.398446
175 2 25.062 14.4486 18.5478 0.817012 -3.49076 -0.936831 -0.740005 -0.18749 -0.461641
176 2 7.97799 28.9343 50.2414 1.26916 0.482533 -1.08949 0.112006 0.041804 -0.0474173
177 1 49.5316 4.57517 45.7286 1.18519 -1.60918 -0.340879 -0.208033 0.0250801 0.733577
178 2 32.6091 51.6081 6.96733 -0.280751 0.729818 -3.89125 0.249651 -0.254221 -0.901864
179 1 58.4575 9.48239 12.8898 4.17477 2.57413 -0.587738 -0.197857 0.166448 -0.0519819
180 2 51.2074 53.765 1.26693 0.466971 -0.825289 -0.343431 0.246048 -0.321478 0.0460797
181 2 9.59329 30.6743 13.6664 -0.0964747 -0.144264 -1.12172 0.383165 0.0457558 0.186672
182 1 38.4722 50.8983 9.746 1.11713 -0.64217 0.470836 -0.192533 0.40451 0.0742083
183 2 1.99908 40.8345 3.06239 -1.95371 -2.03484 0.638284 -0.0212647 0.681875 0.0883207
184 2 13.7091 21.9473 56.7846 1.24423 0.108047 -2.34688 0.0424771 0.403118 -0.29125
185 1 26.8338 11.3498 35.4451 2.06547 0.234971 1.9633 -0.505675 -0.015207 0.305298
186 2 52.0194 2.57889 47.3132 2.18065 1.44913 -1.53832 0.167604 0.336623 -0.601016
187 1 43.6352 22.0867 45.524 2.98754 -1.22147 0.680427 0.241569 0.031631 -0.218693
188 1 31.0457 9.48614 3.87629 0.840111 0.240648 -3.60399 0.233552 -0.150851 0.41315
189 2 25.7586 17.7645 52.6107 0.551595 -2.43295 0.194857 0.179428 0.0970697 0.187019
190 2 13.3011 41.0501 11.7516 -3.11558 1.53701 0.263582 0.358617 -0.485557 -0.0767618
191 1 28.058 46.6034 50.6616 -1.08708 -2.67423 0.218473 -0.220864 -0.133343 0.10067
192 2 1.10471 10.4194 15.2417 2.77192 1.66999 -1.65694 0.826487 -0.519609 0.690726
193 1 57.2114 42.094 33.3002 2.99753 -1.502 0.211925 0.419833 -0.286045 0.411564
194 1 11.4956 50.1725 18.9899 0.879205 -2.72261 0.769408 -0.0210563 0.670478 0.387158
195 1 51.8318 28.1698 42.4512 1.57255 -2.90445 -2.33773 -0.616369 -0.154647 -0.0449996
196 1 16.0585 56.0885 29.4871 0.601551 -1.82911 -0.4181 1.03534 0.484355 1.23563
197 2 32.1688 0.519411 59.1455 0.136719 0.129432 0.499529 0.430498 -0.241817 0.44308
198 2 31.3713 51.7582 0.212652 1.95541 -0.761092 1.49062 -0.638917 -0.469283 0.254683
199 2 11.1448 24.8725 11.1896 2.06093 0.172855 2.71728 0.161532 0.140723 -0.0957611
200 1 56.2047 16.2396 8.58894 -2.58905 -0.130003 -0.922 0.221707 1.13992 -0.0199697
201 1 8.60466 56.0547 4.69231 5.25232 0.110256 -2.13064 -0.638709 -0.201057 -0.459677
202 2 4.76596 12.0932 40.4468 -1.79031 -1.53599 -0.0268146 -0.238679 0.190569 -0.162341
203 2 57.4988 11.8362 33.4406 -0.625296 -0.692536 -0.638934 0.346975 -0.504067 0.165506
204 1 31.4264 40.2499 31.309 -0.519857 -2.66875 2.42042 -0.0644773 -0.157945 0.211537
205 2 20.2675 58.7463 23.8455 1.49493 1.33378 1.19009 -0.74541 0.361816 -0.257444
206 2 4.20236 34.6796 3.79133 0.689232 1.11467 0.527797 0.435937 -0.504178 0.185002
207 2 13.3382 51.6876 20.36 1.32679 -4.43356 -1.75242 0.0877213 0.0812786 0.425182
208 2 53.4771 33.1631 12.815 -0.503463 2.50839 -1.8342 0.106749 -0.45898 0.345776
209 1 19.8968 11.3818 57.234 0.117426 -0.0943499 1.4752 0.400071 0.0132098 0.324217
210 2 2.79791 2.39674 50.6804 0.475433 -0.15395 -1.13213 -0.657775 0.382176 -0.464174
211 2 34.3033 16.5987 18.1554 0.269946 0.792513 -2.13253 0.706181 -0.353085 0.179186
212 1 57.3576 31.2241 30.7049 -2.07786 0.4609 -1.84306 -0.0159381 0.34109 0.0917323
213 2 26.3783 14.9774 28.5032 0.112769 -1.37996 -2.43411 0.431231 -0.41159 -0.219102
214 1 40.7791 42.6668 26.2973 0.618977 2.21892 0.473178 0.132287 -0.272223 -0.242173
215 2 51.8586 20.9004 25.6481 -0.61629 0.290782 2.88409 -0.538429 -0.675956 0.22832
216 2 14.8231 49.6953 22.499 -1.73391 -2.22667 -1.19497 -0.0462933 0.111404 0.12631
217 1 38.3658 39.924 23.5787 1.66934 1.00048 5.24297 -0.112556 0.448112 -0.43975
218 2 55.4626 20.8336 56.4451 1.04455 -0.162944 -1.30093 -0.818876 -0.156175 -0.2143
219 1 49.8321 28.2621 27.5861 0.932195 -2.36667 -0.481866 -0.411061 0.656872 0.368519
220 1 41.0619 24.5903 45.2414 -1.99402 -3.27483 2.56469 0.14118 0.156116 -0.0471192
221 1 27.6042 49.8975 41.1244 -1.01204 1.08018 -0.420016 -0.496758 -0.143928 -0.249599
222 1 54.0982 34.6697 4.8502 1.27075 1.27488 -1.21459 0.0860707 0.909643 0.675005
223 1 42.6106 42.9726 6.31725 -1.89788 3.38108 -0.154937 -1.11888 0.0756679 -0.0302075
224 1 9.12827 47.1555 4.2523 1.26699 -0.984586 0.725961 -0.111946 -0.16489 -0.0145419
225 2 33.7551 24.8781 21.6104 1.13059 0.0453256 -1.5606 0.680505 -0.352536 0.606239
226 2 45.5008 7.0276 56.5694 2.13124 1.12619 0.748827 -0.0539831 0.477905 0.025236
227 1 8.46363 8.35247 19.7 -2.747 0.233106 0.934855 0.0881536 0.166462 -0.437809
228 2 0.40755 44.6313 50.1352 1.02426 -1.36584 -2.46185 0.348211 0.137678 0.110383
229 1 18.7686 10.9158 36.4133 -1.14528 0.730083 -0.245395 -0.0369021 0.317949 -0.392784
230 1 48.7075 45.1004 32.7756 0.598504 3.7383 1.14453 -0.331103 0.056506 -0.29141
231 1 54.5072 25.7165 21.7445 -1.94472 1.59394 -0.364715 -0.318648 0.132368 0.448924
232 2 49.1444 0.684689 30.6791 2.13414 -1.11681 -0.868046 -0.371584 0.301084 0.417525
233 2 33.5327 56.2118 7.34323 -0.717214 0.0136833 -1.04339 -0.0863544 0.210442 0.153297
234 2 56.0738 54.049 46.5284 -0.903222 2.15254 -0.364799 0.819632 -0.0794025 -0.391172
235 2 54.799 16.0724 10.8561 0.603 1.02419 1.44637 0.200054 0.225182 -0.0212397
236 2 6.75924 29.3616 33.2305 -0.466678 0.958429 -0.428387 0.37099 0.40587 -0.0398433
237 2 57.2596 14.9309 1.64327 -0.384655 -1.0859 0.460827 -0.23684 0.310299 0.352411
238 2 56.4487 31.4274 43.347 -1.17684 1.69869 -0.207151 -0.573369 -0.196056 -0.247775
239 1 45.6567 16.7561 34.3884 2.23959 -1.23978 -0.331544 0.362553 -0.797245 0.00111309
240 1 45.1821 13.5044 55.7811 0.814973 0.522546 0.472952 0.315817 0.714578 -0.677154
241 1 52.7781 18.6431 36.5105 -2.84001 -1.38575 1.93239 0.38107 -0.579332 0.382262
242 2 25.8356 26.0859 17.4042 -2.11176 -0.569412 -2.45978 0.190809 0.47977 0.901799
243 1 32.7523 25.3524 39.1982 0.549677 1.22697 1.21614 -0.87124 -0.419845 -0.61734
244 1 4.70909 32.6767 45.2594 2.02695 2.76521 1.33293 0.452453 -0.377642 -0.234592
245 1 17.9851 44.4588 42.683 1.24387 -1.4283 -1.74359 0.136658 -0.313111 -0.289185
246 2 58.5698 22.714 13.3015 -0.513164 3.3686 1.24664 -0.0566916 -0.574507 0.0162982
247 2 11.5082 8.43417 26.0596 2.77566 1.83643 0.520226 -0.0132025 0.169059 -0.210172
248 1 15.4539 11.7492 25.8594 -0.0365283 0.797634 1.39173 0.551004 0.646312 -0.434059
249 2 14.0597 21.5641 20.5295 2.91396 0.291426 -0.394933 -0.0913212 -0.493642 0.587379
250 1 48.0047 40.7754 55.3784 2.68131 -2.2078 -0.414862 -0.256823 -0.357091 -0.0560861
251 2 29.6703 31.5677 8.52836 0.310098 1.77827 1.9638 -0.184098 0.509661 0.12257
252 1 2.85918 2.42816 32.7456 -3.39672 -1.46434 4.81469 -0.150927 -0.106679 0.128211
253 2 32.414 26.9846 16.7545 0.770093 2.43025 0.658571 -0.607946 0.176088 -0.0255806
254 2 34.8947 34.587 7.65679 -2.15996 0.767356 0.975113 -0.381287 -0.466135 0.271008
255 2 30.3068 35.5032 59.234 -3.86752 0.580745 -1.75345 0.315227 0.831489 0.188042
256 2 48.6616 14.736 14.5588 1.20823 2.81885 1.75551 0.268985 0.0957122 -0.083244
257 2 17.3878 2.1625 43.5465 -1.12168 -1.7072 2.71521 0.248664 0.0132604 0.00675475
258 1 45.8196 3.7601 36.9289 1.33923 -2.59344 4.24252 -0.498745 0.305397 0.710022
259 2 35.762 31.1657 3.27151 0.123547 0.270629 1.25269 0.496375 -0.431188 -0.873643
260 2 3.56263 19.9406 57.494 -1.70209 -1.99192 -1.51121 -0.363845 0.142575 -0.283383
261 1 52.2542 57.9159 14.8343 0.0755743 0.158495 -1.01639 -0.143119 0.0351278 0.134213
262 2 33.5968 23.8569 4.55894 -1.36561 0.923108 0.887813 -0.59858 0.576539 0.200177
263 2 10.1284 10.9464 3.13533 1.52634 -1.82099 1.49252 0.35823 -0.0192108 0.0413041
264 2 24.2623 22.9028 51.6102 1.85707 2.55218 -0.316712 -0.137086 -0.0106386 -0.0788769
265 2 16.1908 45.5974 10.9812 1.8188 0.214192 -1.37748 0.499926 0.533032 -0.127209
266 2 36.3044 33.3812 40.8548 -0.233503 0.91476 2.79319 0.260398 -0.07233 0.965763
267 2 32.3242 54.3608 19.8744 -1.01088 1.54235 2.38438 0.274963 -0.888574 -0.334146
268 2 7.82317 17.275 41.8146 -0.155287 -1.12501 -1.59909 0.144597 -0.328846 0.135171
269 1 19.6125 52.1181 16.9428 -1.77663 0.812005 1.03569 -0.123531 0.00826888 0.352586
270 1 51.0404 21.5978 45.6808 1.42894 3.59895 -1.02147 -0.118348 -0.0238065 -0.869897
271 2 6.37633 0.565489 26.5722 3.33461 -0.777015 1.33565 0.526782 -0.209998 0.11373
272 2 19.9474 23.0474 9.82076 1.14897 -0.896275 -1.3012 -0.0282949 0.269886 0.134901
273 1 7.76284 27.573 11.0185 -0.763549 2.58885 -1.52189 0.353364 0.180366 -0.517405
274 2 2.32525 35.8133 6.25864 -0.522776 -0.805808 -1.7235 0.172046 0.268289 -0.0234348
275 1 33.8728 52.8431 38.7357 0.747828 0.18982 4.3671 -0.603982 -0.181651 -0.173467
276 1 18.3508 31.7772 43.271 -2.2888 -1.96468 2.14236 -0.366817 0.120016 0.127411
277 2 34.4849 19.4631 39.7029 1.00938 -0.361105 0.85295 -0.0742937 0.550639 0.501534
278 1 15.5422 22.1668 44.4289 -0.210253 0.649027 1.97893 0.0212498 0.991609 -0.178457
279 2 10.7534 1.22193 53.7905 0.307787 -1.8124 -1.43507 0.0287647 -0.0141261 -0.304524
280 2 2.57134 59.1136 38.8113 -1.82389 0.00900589 -1.58607 0.0262952 -0.246413 0.192065
281 2 12.0453 29.3229 2.26279 1.21506 -0.0347745 0.144107 -0.0978106 0.433649 -0.115695
282 2 32.1556 2.86061 12.0938 0.672921 0.530427 0.00104552 -0.331301 0.41079 0.208372
283 1 51.5496 43.2758 2.68583 -2.51212 -0.00803386 -2.1075 0.488157 -0.229045 -0.256904
284 2 42.8931 20.5551 35.7029 2.49615 0.472917 -1.4702 0.357472 0.144449 -0.169065
285 1 58.5878 21.2285 18.6351 -1.22461 0.448009 -2.5407 1.29403 -0.541665 0.84331
286 1 3.81443 52.1473 47.6236 -0.480842 0.705659 0.84129 -0.560361 -0.0591503 0.226392
287 2 23.8048 0.666551 8.93859 -0.0673261 0.422249 2.82188 -0.0197504 -0.193651 -0.238966
288 2 56.7729 30.5065 35.5962 1.56997 -2.89449 1.79232 0.735535 -0.257346 0.146317
289 2 16.0534 53.8629 31.0205 -0.378101 1.91159 1.13645 0.156357 0.309067 0.37111
290 1 55.8798 13.5039 46.2438 0.31537 -2.93811 4.18388 -0.245547 -0.125728 -0.269856
291 2 52.4606 6.65122 55.5806 -0.487978 -0.452768 1.76409 0.167515 -0.0464872 -0.0603154
292 2 38.6893 4.75031 7.84053 1.60579 -0.0643875 -0.21317 -0.257966 0.510941 -0.202604
293 2 2.84623 56.0848 39.9238 2.80769 -2.93936 -2.20251 -0.265034 0.297687 0.075854
294 2 6.53337 54.9082 31.7265 1.22646 -2.23724 0.825266 0.0676864 0.390136 -0.600607
295 1 3.98496 33.8172 20.8065 1.85655 3.54757 -0.920418 -0.049969 -0.502971 0.318425
296 1 41.3251 2.3225 20.5593 2.32395 0.682835 -0.166409 0.412353 0.237935 -0.446762
297 2 52.4566 28.5762 27.4149 -2.38864 2.0235 -1.09913 -0.332784 -0.492891 0.17403
298 2 25.9637 51.1916 43.3055 -0.866417 0.619785 -0.487399 0.561083 -0.642512 -0.717421
299 2 46.1193 20.502 35.0821 -1.16604 2.31604 5.14413 0.115702 -0.590306 0.458685
300 2 42.4324 47.7518 15.0019 -0.245473 0.0931374 2.08464 0.110558 -0.240117 -0.00330377
301 1 14.5501 47.3505 28.0616 -0.327622 1.6896 1.08833 0.428331 -0.00352319 -0.206708
302 1 53.3221 13.2507 27.1302 1.26074 0.354721 3.45701 -0.712594 0.714634 -0.244784
303 2 10.7612 51.3861 9.86588 -1.18116 -2.09577 -1.7826 0.290039 0.0387708 0.0139211
304 2 3.54214 8.24319 14.0409 1.21265 -2.25593 -1.21378 0.52634 -0.389046 0.389507
305 1 55.6983 41.051 8.89004 -1.69217 -0.0178959 -0.236316 0.115725 0.0520721 -0.110195
306 1 57.5582 17.7799 46.9079 0.759007 1.30346 1.32782 0.728131 0.0280462 0.746234
307 1 8.74451 48.4836 53.6867 1.4517 -3.83116 -0.313839 -0.440809 0.0897643 -0.28857
308 1 50.6533 39.1927 22.1141 1.16294 2.48441 -0.595365 -0.577734 -0.104193 0.454294
309 1 1.47394 27.7891 18.301 2.2174 3.86365 -3.94997 0.106768 0.156281 -0.0825801
310 1 27.9962 40.6331 6.54781 0.852974 -0.878783 2.02164 0.2496 -0.60874 0.149411
311 1 4.27179 56.6305 32.5509 0.635634 -3.12583 -2.92867 -0.00819197 -0.125334 0.00981984
312 2 5.68032 30.6421 50.6753 -0.31852 -1.43377 -1.58215 -0.372058 -0.318893 -0.632876
313 2 9.76831 36.7113 6.6931 -3.34262 1.36391 -1.99077 -0.341875 -0.194731 -0.137151
314 1 28.2006 56.2976 8.58349 1.0719 -1.7241 4.64083 -0.488226 0.520959 -0.229314
315 1 4.58253 52.8232 15.6296 0.556845 -0.58948 0.798257 0.0730588 -0.00686218 -0.0120376
316 1 6.71752 3.27729 37.4642 -0.502529 -0.511646 -0.613293 0.179948 0.282885 -0.475695
317 2 30.0044 49.3891 9.39765 1.56322 0.204299 -2.45352 0.0966676 -0.781563 -0.41121
318 2 58.5675 50.2652 9.05898 -0.400034 -1.86446 1.14138 -0.288283 0.769973 -0.616001
319 2 47.4996 5.4236 13.257 2.4398 -2.12875 1.32767 0.472718 -0.18804 -0.0218818
320 1 8.34376 53.5603 5.36733 -0.421298 -5.03466 2.43132 0.29674 0.361036 0.366521
321 2 23.1341 57.0407 47.4969 2.4004 -0.889912 0.539595 0.298662 -0.633846 -0.101792
322 1 10.3509 31.4113 53.1932 -0.484867 -0.585453 1.96394 -0.183825 0.132593 0.446126
323 1 38.6611 34.3378 13.9699 2.03818 -2.44038 -2.34018 -0.137972 -0.435291 0.374265
324 2 57.4838 13.2214 4.90845 1.55241 0.556178 -2.37051 0.34473 0.177862 -0.241727
325 1 17.7214 3.94892 48.9226 0.152342 -1.48329 0.966637 0.0975217 -0.0986407 0.170723
326 2 26.7928 2.40676 57.3913 -1.09587 0.716784 -1.42249 0.0302426 -0.031753 -0.10435
327 2 27.0239 40.8654 21.9175 -1.9202 -0.892873 -1.89585 0.0511754 0.410431 0.083406
328 2 32.7583 31.9425 31.6102 1.11601 4.19413 1.26803 0.0555082 -0.339574 0.138458
329 2 39.525 3.98541 50.7119 -3.4653 -1.18186 0.681141 -0.309377 -0.03492 0.234257
330 2 48.7663 52.6609 7.05513 -0.701985 -2.09383 0.730984 -0.424457 0.181697 0.167913
331 2 36.3164 16.495 24.4551 0.581272 2.06394 2.1237 0.73352 1.11701 -0.745214
332 2 2.45405 17.9438 34.1013 -0.790819 1.47464 0.962858 0.23522 -0.126559 -0.399942
333 2 47.9501 2.74668 11.4405 -1.23009 0.1719 3.03502 -0.364171 0.142096 -0.416041
334 1 55.7139 12.7812 2.34178 3.33115 -1.50909 -2.40273 -0.22686 -0.122311 0.00317417
335 2 33.0844 55.6455 50.3679 -0.645839 -0.946296 -1.40471 0.183206 0.248866 0.456535
336 2 17.8843 13.0781 34.8073 1.44818 -0.726576 0.114689 -0.015431 0.324998 -0.172728
337 1 8.69756 4.10917 4.02658 2.82381 3.16346 0.170528 0.477685 -0.0540481 0.377987
338 1 11.2292 46.1205 28.2873 3.23484 0.900715 0.00624008 0.300943 0.458605 -0.0475789
339 2 11.7481 24.4772 51.9475 2.18273 0.0532115 0.206184 0.405033 0.129536 0.512581
340 1 30.4373 42.4465 57.2093 2.67365 -0.209846 1.32794 0.378494 0.0475891 0.273732
341 2 57.8288 32.2558 53.6818 -0.176888 -0.812447 0.887448 0.081416 0.346412 -0.0149184
342 1 20.4001 29.2345 0.098735 -0.470185 1.67244 1.42977 0.301935 -0.28517 -0.146459
343 1 54.145 18.7615 57.1485 -0.632307 -0.390837 0.220867 0.162124 -0.189931 0.0856333
344 1 20.3225 25.1787 58.3531 3.2565 -1.66366 -1.69314e-04 -0.427339 -0.536912 0.0317699
345 1 44.3076 32.1586 23.581 1.10486 -2.41242 3.68913 -0.320578 0.319809 0.252671
346 1 50.6831 2.99865 30.7465 -1.43616 2.97338 -0.420266 -0.0530122 0.0482969 0.0204496
347 2 53.6269 43.1541 0.381203 -2.59285 0.0398899 0.254929 -0.395689 -0.035391 -0.272659
348 2 23.1736 0.305336 28.4901 1.7055 2.4039 -0.0468702 0.191084 0.0146733 -0.080597