ITEM: TIMESTEP
22000007
ITEM: NUMBER OF ATOMS
11664
ITEM: BOX BOUNDS pp pp pp
-0.0198482 59.4198
-0.0198482 59.4198
-0.0198482 59.4198
ITEM: ATOMS id type x y z vx vy vz fx fy fz
1 1 33.5853 8.9109 26.3371 -1.82612 -1.61344 1.46154 -0.54954 -0.263007 0.340608
2 2 36.4695 38.5063 24.867 -2.20865 1.13805 -0.512976 -0.181032 -0.0412699 -0.100309
3 1 23.8544 5.07433 59.4278 -2.81848 0.738398 0.820515 -0.27817 0.401531 -0.245376
4 1 9.74336 54.0132 22.0172 0.712799 0.427792 2.04557 0.630388 0.526617 -0.0762836
5 1 15.1686 7.95038 13.0439 0.876834 3.10241 -2.56308 0.248556 -0.335894 -0.730211
6 2 35.9441 39.0496 0.438116 -2.11638 -0.571981 -1.21452 -0.252044 -0.302456 -0.0556479
7 1 20.1578 1.8901 13.8058 0.749374 0.704525 -1.92785 -0.278604 0.435623 -0.0988134
8 1 19.0625 28.8151 20.6477 2.82598 0.500615 -3.27813 0.280939 0.599513 0.401611
9 2 43.78 59.1879 9.92908 1.22086 1.10068 2.25809 -0.101066 0.377341 -0.113048
10 2 54.9939 11.7208 9.56946 0.980258 -1.75442 0.872598 -0.307725 -0.296595 0.192602
11 2 33.8103 26.8085 19.5319 -2.99198 1.07271 -1.32967 0.0588119 0.0446135 -0.070427
12 2 22.9422 55.286 16.1117 -1.41469 -1.40879 0.42746 -0.625776 -0.267969 -0.236703
13 2 15.9673 22.5273 18.3112 0.350138 2.60084 1.76315 0.0834317 -0.595037 -0.19651
14 2 20.2421 5.39546 7.5849 0.58418 -1.31978 0.936361 -0.212863 -0.34265 -0.0455703
15 2 52.6387 6.66751 36.6796 1.72182 -0.64657 -0.981453 0.709929 -0.214142 -0.212613
16 1 39.6743 42.5856 53.4559 -1.17969 -1.5599 2.14742 -0.362793 0.261698 -0.153795
17 1 27.0444 23.1001 23.6915 0.542649 0.377988 -1.51354 0.292557 -0.0936545 0.136197
18 1 0.678193 46.1581 47.0547 1.56057 1.58437 -0.504921 0.76021 -0.758861 -0.254591
19 2 33.4747 10.9893 46.2734 0.819668 0.390536 3.15219 0.0612059 0.396219 -0.608865
20 2 1.58224 30.4655 55.3326 0.791413 1.91883 3.01746 -0.0323383 0.138405 0.19615
21 2 3.98025 23.2033 45.2508 -1.03684 -3.48365 -1.18899 0.578826 -0.552152 -0.014182
22 1 22.7048 5.1456 14.9548 2.47234 -1.72168 -2.05553 0.325249 0.18996 -0.276954
23 1 51.8857 2.98772 28.446 -6.17783 -0.977313 3.95038 0.460236 0.0382061 -0.282857
24 2 22.5076 5.82646 11.4035 0.424681 -1.06057 1.07663 -0.419585 -0.185484 -0.303109
25 1 58.9691 12.0575 25.3753 -2.35996 -1.90985 -0.541026 0.0682629 -0.194757 -0.20555
26 1 39.0362 16.7142 22.6487 -0.508016 -0.425449 1.69664 0.191753 0.404847 0.356257
27 2 56.4449 47.8766 16.6059 -0.726778 1.04049 -0.521606 -0.423711 -0.611998 -0.360288
28 2 31.5695 14.6152 25.085 2.16968 -1.7503 -1.90463 -0.622566 0.129047 -0.114557
29 2 35.5897 58.1351 50.0849 1.02004 -1.9988 -1.21459 0.0556714 -0.780792 -0.459224
30 1 39.5583 24.7948 23.3461 1.10725 -1.04537 0.393766 -0.203582 -0.194678 0.281532
31 2 56.4154 24.9104 12.3434 -0.614169 0.333472 -1.49672 -0.778571 -0.00863562 -0.127027
32 2 10.8254 32.2683 3.65411 -0.528983 0.0786344 -0.195952 -1.17537 -0.553923 -0.734525
33 2 36.7354 13.3999 41.0086 -1.6851 1.52319 -0.0737358 0.110842 0.419242 -0.3845
34 1 23.2433 53.0491 32.1438 -0.505921 -2.76042 -0.402118 -0.289034 0.641297 0.383588
35 1 55.7904 15.5286 31.2134 -0.428646 0.385893 1.8724 0.706808 -0.373196 0.0971929
36 2 48.5758 49.7648 31.7007 3.28125 1.53815 -0.0579961 0.199263 0.237944 0.0834715
37 1 33.0059 17.3841 31.7354 -0.58482 -1.36702 0.701376 -0.0808135 -0.113727 -0.0506507
38 2 44.5901 15.179 11.2246 1.83723 -1.66518 -0.333818 0.100319 -0.0139062 -0.00285043
39 1 53.8347 55.1649 18.4178 -0.304418 4.1086 -1.88689 -0.717895 -0.400129 -0.19179
40 1 29.3785 54.863 24.9836 1.20261 -0.471944 1.19118 0.582586 0.165775 0.559032
41 2 50.7029 51.9028 55.1079 2.98858 -0.954272 1.72108 -0.270197 0.0981959 0.146309
42 1 44.3652 2.93989 53.8697 -1.32767 -0.590916 -0.906016 0.0143797 -0.180339 -0.249269
43 1 5.2507 11.4786 45.4878 1.82242 0.769889 -1.38154 0.275646 -0.312947 0.0222454
44 2 42.2292 38.8024 33.5264 2.00437 -1.34387 -0.814048 -0.106243 0.148268 1.04007
45 2 44.7636 37.9323 31.9561 -0.825926 -0.618071 -0.612457 -0.434795 0.0863347 0.156059
46 1 41.4524 58.1249 55.7808 -0.664078 -2.19115 -0.143814 -0.320132 0.305856 0.148292
47 1 48.2747 12.6135 24.3799 1.60324 0.892748 1.20586 0.194927 -0.315188 0.0542393
48 2 40.1396 46.3287 38.5636 -1.33938 -1.24222 -3.55842 0.953818 -0.566903 0.00185798
49 1 27.6195 51.9807 45.197 -4.50578 1.07268 -0.554868 0.0854233 0.331398 -0.315245
50 2 19.3685 47.7199 56.5757 -0.104087 -1.2794 -0.666651 0.152969 0.524177 -0.144395
51 1 15.5279 2.65198 45.5848 -0.0342059 0.0730087 -0.790821 0.0844935 0.189895 0.237102
52 1 18.7017 45.6313 49.2425 -1.00005 -0.944301 1.58155 0.27223 -0.256938 -0.352905
53 1 10.697 27.6106 6.66493 1.11104 -0.0724012 1.25457 -0.205265 -0.27803 -0.170033
54 1 32.7659 12.9071 52.9592 0.397011 1.90267 0.423425 0.536786 -0.905813 0.487066
55 2 52.1625 25.5574 29.371 -0.74655 1.00721 2.39812 -0.477215 -0.256225 0.21505
56 2 22.1364 59.2819 56.4138 0.360686 1.45674 2.03276 -0.277205 -0.0702155 -0.174866
57 1 45.6971 21.4945 43.8503 3.68151 0.373702 2.15285 -0.468302 0.122216 0.0395966
58 2 37.5233 54.1065 55.4543 2.00752 0.590801 -0.677187 0.691003 -0.533365 1.09795
59 1 20.2189 4.25832 2.69606 0.0146431 -0.460883 0.594148 0.427398 -0.150899 0.07604
60 2 10.5853 9.36831 17.807 -1.81785 0.853736 -1.04392 -0.023929 0.370247 -0.349633
61 1 24.3894 39.6565 22.3184 1.83122 -0.768029 -3.84414 -0.241264 0.230772 0.264485
62 2 57.6279 26.6561 1.31369 -0.336602 0.694065 2.26685 -0.0925207 -0.00344219 -0.232162
63 2 50.1319 22.8563 40.9313 -3.55138 -0.716168 3.10445 -0.167427 -0.144609 -0.348491
64 2 5.67739 32.2747 29.8699 2.03785 0.412602 2.51083 -0.398627 0.027016 0.240964
65 1 27.544 15.0656 13.5454 -0.0267386 -2.60598 1.8818 -0.452351 0.0862569 0.418281
66 1 37.5402 25.4262 31.2344 0.678147 4.09113 -0.495477 -0.744363 -0.808029 -0.227143
67 1 35.9682 34.7817 52.6277 -5.28312 1.71563 0.0382643 -0.113112 0.347154 0.366825
68 2 43.8736 46.0585 57.856 -0.239211 0.3179 2.13996 -0.492352 -0.453614 -0.321593
69 2 23.5943 55.7424 30.4735 1.20315 -0.0290661 -4.13817 0.160496 0.623969 -0.696012
70 2 16.3288 17.3837 18.0655 2.68587 -2.4924 0.0913784 0.793668 -0.590995 0.00996893
71 1 20.3561 4.6168 10.1755 -2.48764 0.142607 0.824851 -0.51356 0.00757716 -0.289402
72 2 5.01954 42.5894 12.1001 1.10836 0.485365 1.69398 -0.0733138 -0.0143466 -0.41459
73 2 43.0014 12.6674 50.3385 0.76865 -1.50619 -0.365616 0.216885 0.176722 0.243087
74 2 26.7223 22.0358 50.0288 -0.774059 -1.47378 1.55517 -0.0673258 -0.181795 0.194441
75 2 29.7402 57.5589 31.8109 0.6542 -1.18829 1.36604 -0.608609 -0.814068 0.0266775
76 2 19.7757 55.2365 56.3934 -3.24344 -1.21282 0.0905991 0.840301 1.04907 0.612724
77 2 13.0013 22.38 27.8402 0.704329 3.15769 -2.14508 0.106386 0.173557 0.187353
78 1 3.43305 19.7439 19.5596 0.9584 -1.72743 -5.20251 -0.195995 -0.60583 0.0875946
79 2 51.972 10.9322 29.5795 -0.959686 -2.04546 -2.09834 -0.719133 -0.305119 0.80713
80 1 10.5991 20.3075 23.8856 -3.01852 -2.01992 1.06982 0.195851 -0.438113 0.078073
81 2 5.08186 45.7772 27.0202 -0.856435 1.91402 -0.0636042 -0.765517 -0.570532 -0.213145
82 2 31.8155 17.3835 56.1039 -1.89708 0.157333 1.65372 0.394742 0.196903 -0.0112777
83 2 7.05941 39.4803 31.6802 -2.82268 -1.65342 -0.787973 0.00452058 -0.535457 0.436432
84 2 45.3058 27.9072 45.9457 1.9735 -2.27012 1.5517 -0.0316851 -0.189983 0.602261
85 2 54.3116 12.5665 52.6096 -0.16651 -0.921329 -0.119123 -0.43652 0.54829 0.114295
86 2 6.95513 10.9237 3.57632 0.425412 -0.631353 5.10224 0.258004 -0.593696 0.108225
87 1 12.0924 11.8656 22.2175 1.45706 -0.314747 0.731384 -0.265572 0.274232 -0.0140791
88 2 22.0757 59.1146 34.1408 -2.24363 -0.0263478 2.98995 -0.474729 0.100688 -0.929129
89 1 28.2611 12.7462 46.3464 1.26722 0.740082 -2.89366 0.707664 0.0185135 -0.375981
90 2 35.2255 55.8795 4.46255 -0.572643 -0.99305 -1.58216 -0.0269438 -0.011027 0.242051
91 2 3.80101 49.3163 21.7369 -2.06505 -1.56703 1.1801 -0.774737 -0.295361 0.271313
92 1 42.385 7.4432 8.45615 -0.0572152 2.09178 -4.09158 -0.31064 0.179399 -0.465956
93 2 6.27222 46.7586 18.5144 -1.90765 0.197049 -1.1147 -0.635756 0.0390954 0.395759
94 2 6.3331 26.247 37.4234 2.65445 0.0394208 1.89776 -0.0482585 -0.100814 -0.101352
95 1 26.1566 42.488 52.4947 -3.21295 -2.5916 -1.46875 0.38732 -0.145192 -0.0425978
96 1 7.91679 36.5197 27.7847 -2.37327 -1.57759 -4.05672 0.452557 -0.886836 -1.14894
97 1 0.317333 2.42345 58.1007 -1.69052 1.59218 -0.404597 -0.486556 0.153325 -0.00524062
98 1 18.4774 33.1327 1.4356 -1.96689 2.15548 -4.07015 0.189392 -0.0813038 0.277029
99 1 53.799 1.92308 51.9217 1.85756 1.89566 -2.81078 -0.0263209 -0.327735 0.0544219
100 1 12.2163 40.4765 57.2032 0.858591 -2.95406 1.91192 -0.106943 0.0417685 0.282975
101 2 5.51391 44.6189 40.3799 1.98039 1.38541 3.94011 -0.452065 -0.192114 0.123957
102 1 18.5844 6.5285 49.5155 -0.194447 -0.954795 -3.38055 0.578525 -0.496102 0.521216
103 2 40.7053 31.0485 34.7341 1.38823 -0.418913 -0.158251 -0.0777737 0.162078 0.697663
104 1 47.6737 24.0903 20.1327 -1.56639 -1.56423 7.09095 0.202105 0.064724 0.0352449
105 2 33.0501 39.9401 20.3868 1.73894 0.717457 -1.84743 -0.0598627 -1.41032 -0.0211825
106 1 30.7586 0.370969 2.19167 3.02225 2.24965 2.88986 0.378326 0.288339 -0.192115
107 2 56.6743 16.8621 26.5685 -0.878614 0.96303 2.04422 0.656181 0.136314 -0.271938
108 1 5.62578 27.9127 27.651 0.955493 -1.06832 -0.632289 -0.414003 -0.390151 0.350054
109 2 32.159 20.2545 22.4296 0.881339 -1.5077 0.0703471 -0.162525 -0.843089 0.111145
110 2 37.5877 0.283347 30.3408 0.251025 1.03731 -1.02118 0.179101 0.250964 -0.189358
111 2 8.72633 55.6449 24.1129 0.109098 1.83428 -2.2538 0.311177 -0.174851 -0.249269
112 2 54.508 30.6243 20.3213 0.0136962 1.11343 0.155637 0.45542 0.00473021 0.564919
113 1 20.4451 15.5937 52.5236 -1.44641 1.42384 2.12193 -0.41247 -0.0978188 -0.114546
114 1 14.6775 13.0362 31.0987 -1.74319 -0.739266 -3.38469 0.195994 -0.302838 -0.413831
115 1 46.3698 47.4657 58.0105 3.38547 -5.53067 0.58384 -0.435044 0.79921 -0.38723
116 1 45.1485 42.8923 22.0575 -1.90977 -1.44531 -0.129218 -0.408722 -0.362451 0.563894
117 1 23.6884 27.6646 31.8178 1.63923 -1.23898 0.869754 -0.0677203 -0.0489402 -0.182526
118 2 1.97687 47.199 56.7528 -0.440264 0.017048 -1.2229 0.373436 0.478758 -0.268856
119 1 52.4436 57.4267 39.5794 1.91161 -1.80401 -0.139684 0.198943 0.232406 0.886319
120 1 41.4889 0.230497 52.0622 -0.553815 0.543236 -0.316285 0.521774 -0.124626 0.887527
121 1 24.0228 41.197 38.0023 1.52031 1.44286 -3.13225 -0.581446 0.255287 -0.245839
122 2 53.5833 36.2086 33.4802 -0.930762 -0.688376 0.893989 0.0825608 0.232418 0.471381
123 1 2.8551 12.4903 42.1341 -0.784889 2.71643 -1.34351 -0.256504 0.283951 -0.109587
124 2 39.3289 26.469 46.8374 -0.182837 1.87226 -1.56308 0.0406011 -0.00799537 0.58255
125 1 50.992 14.3177 40.9313 -1.44642 0.187947 -2.80125 -0.287457 -0.212883 0.0835798
126 2 43.4888 39.3118 36.4422 0.249295 3.29089 1.69719 -0.368874 0.407159 0.203052
127 1 7.4277 40.9422 36.6736 -4.0759 3.83198 -1.09301 0.215731 0.0964851 0.0877317
128 1 11.7907 15.9986 22.5134 -0.829338 2.8467 0.0281793 0.34538 0.12019 0.098328
129 2 18.1434 3.06129 7.46733 -3.05263 1.21712 -1.31224 -0.303952 0.00646747 -0.345445
130 2 55.6986 16.4024 48.2472 -4.81133 -0.00168596 -2.49856 -0.191427 -0.660234 0.47945
131 2 20.5072 37.4724 41.1237 -0.710093 2.1565 0.485663 0.432262 0.0499983 0.19013
132 2 34.5078 8.54716 9.27824 -0.201269 2.22637 1.91228 0.488761 0.0863727 -0.32106
133 2 46.2365 21.3878 38.19 1.549 0.672856 -0.593298 -0.0224991 0.266049 -0.21355
134 2 58.6785 49.0218 18.2332 1.84538 2.75444 1.40413 0.376616 0.574712 0.0872485
135 2 16.4889 54.1723 16.0035 1.43051 3.03599 1.54882 0.248845 -0.340713 0.349665
136 1 53.0537 17.867 14.7102 -0.336459 -1.52497 -0.560864 -0.122082 0.0606988 0.448839
137 2 5.0744 44.9179 2.30479 -0.882696 -1.17477 -1.42977 0.549422 0.0192854 -0.290249
138 2 42.8508 20.8473 18.1883 0.839638 -2.81928 2.06186 0.792714 -0.0204942 0.0803636
139 1 10.9662 24.1631 42.2886 -2.37693 0.382706 1.13851 -0.0646708 -0.483761 -0.0622257
140 1 3.5509 8.04446 50.8023 -3.42553 -1.54143 -2.19242 -0.34912 0.17443 -0.303713
141 1 39.0529 42.6105 10.5499 0.407332 2.55875 1.46555 0.564224 0.718181 0.208845
142 1 16.6613 31.2917 38.2181 -0.21067 1.05589 3.32465 -0.167392 -0.03631 -0.504892
143 1 56.0432 19.5367 1.73409 -0.190626 0.892307 -0.71504 0.606161 -0.144668 0.45112
144 1 45.0342 8.7403 1.96392 -2.10307 0.918412 1.37084 0.342218 -0.517397 0.231393
145 2 16.3433 27.2021 41.7226 0.667919 2.30119 -2.22492 -0.127564 0.0826982 -0.11701
146 2 48.0769 25.1108 41.7057 1.11571 0.192306 -2.58656 0.180258 -0.385148 0.117417
147 1 36.3429 43.0772 50.0173 1.90048 -3.56537 -1.81759 0.645535 0.281483 -0.177024
148 2 49.6051 49.7779 20.346 -0.0329098 2.31751 1.19392 -0.768031 0.377646 -0.472863
149 2 28.2623 48.2983 57.0171 -0.526571 -2.06587 -0.977802 0.233024 -5.05757e-04 -0.159776
150 1 40.9666 12.3756 17.0547 -0.173689 -0.541666 -2.42621 -0.168679 0.00535568 -0.0756701
151 2 1.08332 30.4443 42.1918 -0.512336 1.62123 0.366799 0.387551 -0.378751 -0.208491
152 2 45.0571 29.5432 32.4912 -0.648973 1.05456 1.42215 -0.251537 0.0767249 -0.491622
153 2 2.11447 59.4169 3.28329 2.85742 0.759782 1.54378 0.113401 0.121939 0.547191
154 1 33.7624 6.59106 40.3552 -0.503975 -2.60933 -2.13088 0.375967 0.508876 0.255228
155 2 4.56795 56.8286 18.3461 -0.137061 0.138592 0.244021 -0.520489 -0.0883294 0.189378
156 2 5.57726 6.5419 55.9824 -0.457944 -0.0963504 0.945801 -0.0949919 0.460566 1.59026
157 2 51.3851 43.2593 37.6368 3.54298 -0.724836 1.11177 -0.0924706 0.479973 0.244585
158 1 26.9244 9.40473 24.5935 -0.784088 -1.23198 -1.13558 0.642349 0.27592 -0.497216
159 2 50.0348 19.875 56.7518 -2.4959 0.788002 -1.82904 0.0951869 0.501763 -0.510869
160 2 19.6696 55.2973 53.3798 -0.368184 -1.61242 -1.68223 0.777354 0.0194405 -0.194867
161 2 2.37868 25.4107 52.4068 -1.651 -1.74251 -0.876278 -0.117998 -0.222308 -0.212595
162 1 8.72138 16.1826 27.1494 -2.55949 -4.02884 -4.2283 -0.0517172 -0.249769 0.0509972
163 2 5.19493 32.0901 1.46891 1.21133 -1.24698 0.61181 0.100823 -0.409101 0.20499
164 1 28.4459 40.5675 4.05489 1.71074 -0.0670087 1.27557 -0.720756 -0.254817 0.0955891
165 1 30.0059 50.4655 25.932 2.79458 1.33498 3.42233 0.398478 -0.161161 -0.0146929
166 1 21.2512 45.566 57.4055 -0.877916 2.15653 2.7236 -0.423755 -0.139807 -0.187404
167 1 20.8095 9.78673 8.78977 1.7534 2.53426 -1.28244 -0.62045 -0.181396 -0.76639
168 1 54.9682 5.98353 2.43689 -1.27172 0.398517 -1.12394 0.247394 -0.324357 0.0858561
169 2 8.19974 6.30725 5.76843 -0.178012 1.0826 0.94141 0.204251 -0.181618 -0.277729
170 1 25.8526 30.9128 23.0446 0.578069 -2.25674 1.4265 0.314479 0.0368173 0.287941
171 1 53.279 4.06981 16.922 -0.827158 -0.538213 0.914029 0.061041 0.198033 -0.735843
172 1 10.3423 37.4126 4.00482 -0.477557 0.794479 -1.61114 0.196935 -0.311093 0.00183422
173 2 47.1468 26.9959 27.5904 -0.50628 0.98533 1.92482 0.254486 -0.825916 0.182487
174 1 14.3896 14.3882 14.9396 -2.29798 0.642444 -2.80222 0.525013 0.102011 0.468676
175 2 25.0646 14.4344 18.5436 0.505037 -3.5537 -1.13344 -0.738003 -0.0845612 -0.459766
176 2 7.98301 28.9363 50.2372 1.31457 0.492119 -1.1057 0.0927533 2.61944e-04 -0.0213555
177 1 49.5363 4.56857 45.7282 1.06178 -1.59353 0.0871788 -0.20319 0.0337074 0.675143
178 2 32.6083 51.6109 6.95084 -0.173153 0.629123 -4.25857 0.260385 -0.226077 -0.805121
179 1 58.4742 9.49274 12.8873 4.04171 2.66521 -0.604571 -0.260097 0.121064 -4.86557e-04
180 2 51.2096 53.7616 1.26539 0.566152 -0.964259 -0.324431 0.219104 -0.328954 0.0464128
181 2 9.59309 30.6737 13.662 0.068774 -0.117952 -1.03444 0.396682 0.0796546 0.232744
182 1 38.4765 50.8964 9.74783 0.99317 -0.398787 0.514754 -0.221095 0.399538 0.0677173
183 2 1.99105 40.827 3.06482 -1.95454 -1.73757 0.677764 0.0314697 0.736257 0.0931309
184 2 13.714 21.948 56.7751 1.25828 0.272862 -2.45895 0.0152529 0.374231 -0.220657
185 1 26.8415 11.3506 35.4534 1.75298 0.230214 2.1342 -0.531888 -0.00156067 0.246275
186 2 52.0284 2.58478 47.3067 2.23413 1.59616 -1.78401 0.0699351 0.347007 -0.54808
187 1 43.6475 22.0818 45.5265 3.12239 -1.19844 0.547927 0.186802 0.0502126 -0.220427
188 1 31.0494 9.48678 3.86222 0.966937 0.151205 -3.31295 0.178984 -0.143448 0.561512
189 2 25.7609 17.7548 52.6118 0.623389 -2.38868 0.276043 0.155663 0.130225 0.195242
190 2 13.2888 41.0559 11.7524 -2.95963 1.32877 0.22789 0.400058 -0.508191 -0.0939864
191 1 28.0533 46.5927 50.6627 -1.2123 -2.74788 0.284008 -0.185385 -0.095233 0.114232
192 2 1.11629 10.4255 15.2356 3.11702 1.4322 -1.3562 0.78268 -0.614932 0.740495
193 1 57.2241 42.0878 33.3016 3.23274 -1.65617 0.445502 0.338504 -0.212852 0.354888
194 1 11.4989 50.1626 18.9933 0.859837 -2.30895 0.994537 -0.0475304 0.703065 0.34953
195 1 51.8375 28.158 42.4419 1.19033 -2.97881 -2.34384 -0.647755 -0.0754225 0.0367627
196 1 16.0621 56.0819 29.4869 1.20697 -1.54328 0.310818 0.94751 0.460282 1.15885
197 2 32.1698 0.519509 59.1481 0.321128 0.0248856 0.690786 0.438995 -0.252296 0.456073
198 2 31.3786 51.755 0.218613 1.68058 -0.95857 1.5947 -0.672307 -0.457615 0.226604
199 2 11.1531 24.8733 11.2002 2.12403 0.227413 2.67024 0.121438 0.115881 -0.145472
200 1 56.1948 16.2404 8.58509 -2.44462 0.583294 -0.917729 0.265364 1.2051 0.0371041
201 1 8.62471 56.0551 4.68305 4.83235 -0.03207 -2.40001 -0.767467 -0.266061 -0.413963
202 2 4.75842 12.087 40.4466 -1.88289 -1.44635 -0.0957154 -0.185643 0.243241 -0.162817
203 2 57.4968 11.8329 33.4382 -0.47611 -0.906867 -0.569642 0.362279 -0.502327 0.165972
204 1 31.4242 40.2391 31.319 -0.55439 -2.76185 2.5449 -0.0466745 -0.135042 0.18588
205 2 20.2728 58.7522 23.85 1.17041 1.48529 1.0748 -0.796588 0.343392 -0.295656
206 2 4.20531 34.6837 3.79341 0.876702 0.900483 0.605177 0.444318 -0.515504 0.175924
207 2 13.3435 51.6701 20.3533 1.34951 -4.39651 -1.56427 0.0106072 0.125018 0.474774
208 2 53.4754 33.1727 12.8078 -0.451667 2.31212 -1.68072 0.140645 -0.485514 0.39136
209 1 19.8977 11.3813 57.2405 0.357633 -0.0873944 1.67907 0.388835 0.010811 0.338883
210 2 2.79906 2.39625 50.6757 0.192296 0.0071738 -1.31938 -0.682196 0.379397 -0.411827
211 2 34.3051 16.6014 18.147 0.568856 0.642606 -2.05193 0.702683 -0.36047 0.216476
212 1 57.3495 31.2264 30.6977 -2.08203 0.664904 -1.78089 0.0124577 0.327595 0.121629
213 2 26.3791 14.9715 28.4933 0.291315 -1.54465 -2.50802 0.41087 -0.357456 -0.11253
214 1 40.7818 42.6754 26.2989 0.695128 2.03904 0.318616 0.115102 -0.330218 -0.26831
215 2 51.8558 20.901 25.6598 -0.863167 -0.00148704 2.96324 -0.621765 -0.705566 0.124169
216 2 14.816 49.6867 22.4943 -1.74503 -2.17275 -1.12865 0.00590441 0.158763 0.194433
217 1 38.3724 39.9286 23.5991 1.60164 1.25804 4.94501 -0.118098 0.393745 -0.565998
218 2 55.4663 20.8328 56.4399 0.695872 -0.235276 -1.38566 -0.833713 -0.183534 -0.176594
219 1 49.8355 28.2535 27.5846 0.671806 -1.95037 -0.256057 -0.449982 0.724542 0.376421
220 1 41.0541 24.5774 45.2516 -1.91639 -3.16232 2.50707 0.124441 0.229464 -0.154868
221 1 27.5995 49.9018 41.1225 -1.31106 0.982777 -0.564794 -0.481726 -0.181569 -0.224932
222 1 54.1036 34.6759 4.84599 1.31867 1.82059 -0.799231 0.0650899 0.878463 0.695885
223 1 42.6017 42.9863 6.31643 -2.57222 3.40127 -0.168024 -1.08683 -0.0264187 -0.0125718
224 1 9.13305 47.1515 4.25499 1.19397 -1.08701 0.709407 -0.134154 -0.167238 -0.0432814
225 2 33.7602 24.8779 21.6046 1.40762 -0.095522 -1.30308 0.62034 -0.311976 0.620518
226 2 45.5094 7.03233 56.5726 2.09475 1.31457 0.75967 -0.132951 0.403627 0.0205106
227 1 8.4526 8.35346 19.7031 -2.6871 0.342429 0.663968 0.122309 0.192016 -0.457469
228 2 0.411729 44.626 50.1256 1.17048 -1.30331 -2.40422 0.334908 0.166825 0.178492
229 1 18.7639 10.919 36.4119 -1.15085 0.907485 -0.489496 0.0236535 0.262569 -0.408337
230 1 48.7096 45.1156 32.7798 0.401647 3.7583 0.963575 -0.319509 -0.00921739 -0.309307
231 1 54.4992 25.723 21.7436 -2.14354 1.67587 -0.0869128 -0.324802 0.129318 0.465695
232 2 49.1527 0.680272 30.6759 1.96492 -0.98084 -0.688041 -0.442185 0.349104 0.438351
233 2 33.5298 56.2122 7.33903 -0.748557 0.104554 -0.974802 -0.0563907 0.21839 0.178026
234 2 56.0711 54.0578 46.5267 -0.562546 2.12037 -0.524751 0.795051 -0.0872363 -0.360997
235 2 54.8018 16.0766 10.8617 0.683827 1.12056 1.42681 0.177248 0.222867 -0.0815545
236 2 6.75751 29.3658 33.2288 -0.314849 1.12852 -0.448254 0.349148 0.390276 -0.0508932
237 2 57.2581 14.9267 1.6452 -0.484362 -0.947123 0.605216 -0.230592 0.352356 0.325612
238 2 56.4437 31.434 43.3461 -1.41666 1.60491 -0.311363 -0.550463 -0.258254 -0.24318
239 1 45.6662 16.7501 34.3871 2.43838 -1.71324 -0.339105 0.279859 -0.753221 -0.0248558
240 1 45.1859 13.5072 55.7824 0.992633 0.966187 0.0744356 0.263666 0.74178 -0.634968
241 1 52.7674 18.6368 36.5188 -2.60557 -1.74698 2.16246 0.403591 -0.601263 0.364682
242 2 25.8272 26.084 17.395 -2.02932 -0.37057 -2.0765 0.213296 0.463244 0.924559
243 1 32.7535 25.3568 39.2024 0.0147123 0.96433 0.838584 -0.889847 -0.448745 -0.628577
244 1 4.71755 32.6873 45.2646 2.28683 2.51909 1.19552 0.392336 -0.44489 -0.223878
245 1 17.9902 44.4528 42.6758 1.31883 -1.60923 -1.90833 0.103756 -0.274911 -0.244162
246 2 58.5679 22.727 13.3064 -0.540756 3.11304 1.23538 -0.0698958 -0.654548 -0.0785579
247 2 11.5192 8.44149 26.0615 2.77379 1.89126 0.438708 -0.0155845 0.0764154 -0.178306
248 1 15.4543 11.753 25.8644 0.276078 1.16962 1.12676 0.476927 0.571749 -0.443837
249 2 14.0711 21.5648 20.5284 2.86362 0.0735111 -0.146119 -0.166809 -0.536792 0.590157
250 1 48.0152 40.7662 55.3769 2.51192 -2.42234 -0.443444 -0.313608 -0.337521 -0.0357826
251 2 29.6714 31.5753 8.53615 0.217461 1.98885 2.00019 -0.255379 0.471737 0.0349998
252 1 2.84523 2.42198 32.765 -3.46575 -1.51941 4.86778 -0.0590047 -0.0669781 0.0231571
253 2 32.4166 26.9944 16.757 0.513274 2.48767 0.644542 -0.609514 0.0770516 -0.045324
254 2 34.8858 34.5897 7.66076 -2.31159 0.566114 1.08506 -0.318526 -0.488684 0.241256
255 2 30.2916 35.5063 59.2274 -3.725 0.932227 -1.67207 0.386105 0.824101 0.208463
256 2 48.6668 14.7473 14.5657 1.32605 2.85333 1.71898 0.27874 0.0470909 -0.101482
257 2 17.3834 2.15547 43.5575 -1.01708 -1.70678 2.70797 0.253145 9.55066e-04 -0.0603137
258 1 45.8245 3.74991 36.9468 1.03189 -2.40668 4.65373 -0.518464 0.321313 0.619938
259 2 35.763 31.1664 3.27558 0.326456 0.0892945 0.873982 0.460165 -0.427375 -0.922893
260 2 3.55533 19.9327 57.4879 -1.85251 -1.92004 -1.62588 -0.334614 0.210769 -0.247424
261 1 52.2545 57.9168 14.8303 -0.0100243 0.179645 -0.922928 -0.138278 0.0340061 0.178529
262 2 33.5908 23.8611 4.56248 -1.61483 1.17306 0.976869 -0.5683 0.59647 0.213741
263 2 10.1347 10.939 3.14114 1.67022 -1.82686 1.51022 0.31026 0.00482458 0.0316914
264 2 24.2696 22.9129 51.609 1.79832 2.55109 -0.347582 -0.153091 -0.0128633 -0.0648425
265 2 16.1984 45.5989 10.9755 2.02468 0.43734 -1.41732 0.45906 0.518522 -0.0508241
266 2 36.3037 33.3848 40.8668 -0.127886 0.873302 3.17986 0.2398 -0.129896 0.840206
267 2 32.3204 54.3663 19.8836 -0.897207 1.14149 2.24028 0.268269 -1.01253 -0.362355
268 2 7.82251 17.2701 41.8084 -0.0923461 -1.26488 -1.53822 0.153509 -0.323356 0.163764
269 1 19.6052 52.1215 16.9473 -1.82847 0.817727 1.24256 -0.0400638 0.0060631 0.32314
270 1 51.0461 21.6121 45.6758 1.34698 3.56497 -1.52922 -0.158227 -0.106131 -0.795159
271 2 6.38993 0.561988 26.5776 3.54012 -0.8666 1.38683 0.419191 -0.206346 0.118124
272 2 19.9519 23.044 9.81553 1.13704 -0.778998 -1.23982 -0.035485 0.28998 0.163695
273 1 7.76005 27.5835 11.0116 -0.551163 2.69122 -1.82594 0.348066 0.142885 -0.474492
274 2 2.32311 35.8103 6.25156 -0.445016 -0.686848 -1.73364 0.198757 0.298267 -0.0123627
275 1 33.875 52.8438 38.753 0.370578 0.0808536 4.23967 -0.639463 -0.177409 -0.267157
276 1 18.3412 31.7695 43.2798 -2.48996 -1.88879 2.22212 -0.283371 0.139152 0.124451
277 2 34.4889 19.462 39.7068 0.982027 -0.13659 1.06474 -0.0616211 0.511294 0.49214
278 1 15.5413 22.1706 44.4367 -0.195285 1.24762 1.86555 0.0296102 0.969988 -0.204618
279 2 10.7545 1.21445 53.7847 0.323339 -1.81919 -1.565 0.0425459 -0.00514851 -0.298467
280 2 2.56386 59.1137 38.8052 -1.81546 -0.0933447 -1.49845 0.026535 -0.236805 0.232694
281 2 12.0499 29.3231 2.26306 1.16737 0.152546 0.089397 -0.135922 0.450107 -0.142641
282 2 32.1581 2.86289 12.0939 0.535839 0.704842 0.0943403 -0.320811 0.408841 0.231965
283 1 51.5403 43.2756 2.6769 -2.20472 -0.143584 -2.25293 0.535211 -0.216346 -0.210955
284 2 42.9034 20.557 35.6969 2.63457 0.533162 -1.52808 0.278433 0.136876 -0.0939814
285 1 58.5847 21.2295 18.6259 -0.42344 0.112701 -2.00791 1.34539 -0.56294 0.91909
286 1 3.81164 52.1502 47.6274 -0.820667 0.662736 0.973829 -0.554738 -0.0855325 0.205633
287 2 23.8045 0.667859 8.94952 -0.0760475 0.33475 2.70918 -0.0211296 -0.221952 -0.312799
288 2 56.78 30.4948 35.6035 1.88395 -2.98073 1.83577 0.737423 -0.127984 0.0454775
289 2 16.0519 53.871 31.0254 -0.316884 2.03272 1.287 0.135462 0.248932 0.331268
290 1 55.881 13.4919 46.2603 0.166099 -3.00345 4.01322 -0.246703 -0.0745589 -0.311744
291 2 52.459 6.6492 55.5878 -0.425129 -0.464248 1.73512 0.13243 -0.00451111 -0.0888323
292 2 38.6956 4.7503 7.83934 1.48641 0.148383 -0.304554 -0.317444 0.494 -0.227229
293 2 2.85703 56.0735 39.9151 2.68394 -2.79889 -2.14963 -0.340588 0.387309 0.189625
294 2 6.53816 54.8998 31.7293 1.25065 -2.06126 0.568306 0.0381063 0.456337 -0.618131
295 1 3.99212 33.8307 20.8032 1.80717 3.21134 -0.702102 -0.122603 -0.620538 0.404413
296 1 41.3349 2.3253 20.5581 2.55427 0.811576 -0.445171 0.332683 0.181605 -0.46924
297 2 52.4469 28.5839 27.4107 -2.52473 1.81063 -1.02598 -0.291416 -0.525858 0.178959
298 2 25.9607 51.1937 43.303 -0.627828 0.343085 -0.790644 0.570906 -0.66848 -0.711001
299 2 46.1149 20.5107 35.1031 -1.1074 2.05534 5.32322 0.168696 -0.656734 0.350679
300 2 42.4316 47.7521 15.0101 -0.205777 -0.0159833 2.07686 0.0782771 -0.274423 -0.0485927
301 1 14.5492 47.3574 28.0656 -0.0677215 1.68187 0.952115 0.428162 -0.0300925 -0.246447
302 1 53.3264 13.2529 27.1437 0.824464 0.7806 3.30095 -0.727706 0.683384 -0.284638
303 2 10.7566 51.3779 9.85863 -1.05622 -2.0736 -1.76095 0.308237 0.0808193 0.100461
304 2 3.54724 8.23368 14.0362 1.43389 -2.41617 -1.04994 0.509275 -0.350839 0.391931
305 1 55.6919 41.0511 8.88881 -1.61777 0.0136682 -0.299672 0.137862 0.0516855 -0.097115
306 1 57.5624 17.7851 46.9142 1.19736 1.31369 1.76802 0.709354 -0.00169588 0.693747
307 1 8.74962 48.4686 53.6853 1.17144 -3.75278 -0.485892 -0.488142 0.185382 -0.275134
308 1 50.6574 39.2026 22.1122 0.824196 2.42145 -0.313094 -0.541282 -0.114985 0.476858
309 1 1.48273 27.8047 18.285 2.27655 3.94267 -3.99039 0.0772555 0.0843988 -0.0307197
310 1 27.9999 40.629 6.55591 0.997002 -1.23374 2.11146 0.220183 -0.554253 0.136341
311 1 4.27414 56.618 32.5392 0.636535 -3.18856 -2.90191 0.00819501 -0.065538 0.0925984
312 2 5.67856 30.6361 50.6686 -0.474003 -1.56489 -1.83285 -0.359763 -0.289829 -0.539232
313 2 9.7545 36.7166 6.68486 -3.48539 1.2732 -2.04014 -0.308362 -0.242822 -0.0815006
314 1 28.2043 56.2915 8.60161 0.758414 -1.38105 4.47859 -0.547148 0.615279 -0.327699
315 1 4.58465 52.821 15.6327 0.588417 -0.596808 0.788186 0.0278108 -0.014746 -0.0255136
316 1 6.71556 3.2754 37.4612 -0.394176 -0.334094 -0.903817 0.179119 0.303553 -0.476852
317 2 30.0108 49.3894 9.38735 1.59643 -0.122791 -2.61367 0.0491899 -0.76367 -0.327731
318 2 58.5658 50.2585 9.06287 -0.524963 -1.53461 0.876789 -0.298346 0.799439 -0.640986
319 2 47.5099 5.41475 13.2622 2.62538 -2.20431 1.31263 0.385735 -0.153904 -0.0585734
320 1 8.34228 53.5408 5.37731 -0.245093 -4.77993 2.63816 0.284614 0.500979 0.301718
321 2 23.1439 57.0368 47.4991 2.52357 -1.12732 0.493441 0.264788 -0.479996 -0.119584
322 1 10.3486 31.4091 53.2018 -0.584026 -0.50159 2.21651 -0.139707 0.145963 0.37458
323 1 38.6691 34.3276 13.9609 1.94829 -2.69845 -2.11562 -0.167581 -0.40097 0.375894
324 2 57.4905 13.2236 4.89858 1.68744 0.623551 -2.47102 0.281271 0.13589 -0.21589
325 1 17.7221 3.94267 48.9268 0.215204 -1.5493 1.06961 0.107944 -0.110695 0.163423
326 2 26.7884 2.4094 57.3857 -1.07064 0.707726 -1.46234 0.096652 -0.016865 -0.0736726
327 2 27.0162 40.8623 21.9099 -1.88643 -0.711356 -1.85855 0.121842 0.452557 0.106627
328 2 32.7628 31.959 31.6154 1.13336 4.03992 1.31919 0.0188537 -0.418697 0.0940407
329 2 39.511 3.98047 50.715 -3.59061 -1.18913 0.775682 -0.256975 0.00887842 0.207255
330 2 48.7633 52.6529 7.05803 -0.889522 -2.01421 0.802544 -0.455567 0.209012 0.164896
331 2 36.3194 16.5041 24.4629 0.893436 2.52494 1.79592 0.735264 1.04421 -0.817362
332 2 2.4509 17.9495 34.1049 -0.677871 1.42217 0.802005 0.303507 -0.131319 -0.366466
333 2 47.945 2.74729 11.4521 -1.38013 0.232823 2.85116 -0.33514 0.144334 -0.47266
334 1 55.7272 12.7749 2.332 3.17064 -1.56866 -2.36963 -0.31768 -0.0663223 0.117527
335 2 33.082 55.6421 50.3628 -0.571699 -0.835351 -1.20671 0.170913 0.281439 0.488104
336 2 17.89 13.0754 34.8077 1.43832 -0.594717 0.0407321 -0.0416476 0.302458 -0.177497
337 1 8.70927 4.12158 4.02753 3.1024 3.13165 0.39809 0.424414 -0.0665419 0.369856
338 1 11.2424 46.1248 28.2872 3.3944 1.18087 -0.0227604 0.207021 0.457935 -0.048165
339 2 11.7571 24.4775 51.9489 2.33475 0.0992158 0.416277 0.298028 0.0875347 0.477739
340 1 30.4485 42.4459 57.2151 2.87674 -0.180586 1.4757 0.27673 0.0504892 0.206018
341 2 57.8284 32.2529 53.6855 -0.130942 -0.655414 0.870585 0.137292 0.400823 -0.0708906
342 1 20.3985 29.2408 0.104058 -0.308344 1.4929 1.33694 0.232131 -0.313526 -0.166223
343 1 54.1428 18.7596 57.1496 -0.537981 -0.50603 0.274815 0.150923 -0.187404 0.0910103
344 1 20.3349 25.1714 58.3534 2.98591 -1.97836 -8.93837e-04 -0.478755 -0.489545 -0.0349542
345 1 44.3117 32.1494 23.596 0.913149 -2.21998 3.82294 -0.315564 0.325135 0.169231
346 1 50.6774 3.01041 30.7448 -1.46231 2.9975 -0.395837 -0.0254785 0.0162068 0.0620662
347 2 53.6164 43.1544 0.381777 -2.74672 0.0292713 0.138878 -0.312337 -0.0151079 -0.276744