ITEM: TIMESTEP
22000006
ITEM: NUMBER OF ATOMS
11664
ITEM: BOX BOUNDS pp pp pp
-0.0205601 59.4206
-0.0205601 59.4206
-0.0205601 59.4206
ITEM: ATOMS id type x y z vx vy vz fx fy fz
1 1 33.5889 8.91355 26.3342 -1.65518 -1.53047 1.35641 -0.567999 -0.275922 0.34505
2 2 36.474 38.5042 24.8678 -2.16688 1.14464 -0.491191 -0.198979 -0.0288681 -0.102236
3 1 23.8598 5.07239 59.4267 -2.72516 0.61879 0.885953 -0.323264 0.382996 -0.189667
4 1 9.74164 54.0131 22.0129 0.517917 0.26321 2.067 0.650214 0.555708 -0.0746027
5 1 15.1665 7.94355 13.0484 0.795749 3.19106 -2.32376 0.281507 -0.2629 -0.834397
6 2 35.9484 39.0509 0.439832 -2.06032 -0.511206 -1.20024 -0.263714 -0.268455 -0.0711479
7 1 20.156 1.88816 13.8092 0.829892 0.570562 -1.89723 -0.255459 0.443653 -0.0937118
8 1 19.0567 28.8142 20.6542 2.7387 0.320529 -3.39365 0.280692 0.584611 0.375091
9 2 43.7779 59.1865 9.92407 1.24067 1.01953 2.27784 -0.0946654 0.382765 -0.0892377
10 2 54.9925 11.7238 9.56727 1.04483 -1.68673 0.829618 -0.309688 -0.331642 0.20796
11 2 33.8164 26.8063 19.5343 -2.99612 1.06011 -1.31308 7.94142e-04 0.0672655 -0.0773456
12 2 22.9447 55.2894 16.1104 -1.2802 -1.35063 0.476755 -0.636596 -0.272456 -0.232468
13 2 15.9663 22.5219 18.3073 0.330178 2.72186 1.80002 0.102958 -0.567386 -0.16421
14 2 20.2407 5.39745 7.58249 0.627945 -1.24645 0.943484 -0.205065 -0.341894 -0.0281983
15 2 52.6359 6.66821 36.6816 1.56471 -0.596846 -0.938718 0.7643 -0.251753 -0.184889
16 1 39.6768 42.5891 53.4521 -1.06407 -1.63816 2.19001 -0.393387 0.261308 -0.137036
17 1 27.0434 23.0992 23.6944 0.451491 0.404223 -1.55051 0.305458 -0.0809904 0.114602
18 1 0.674609 46.1551 47.0561 1.32861 1.80909 -0.42774 0.760645 -0.729244 -0.251519
19 2 33.4732 10.9881 46.2673 0.80401 0.305227 3.27617 0.0812958 0.40799 -0.585221
20 2 1.57998 30.4618 55.3272 0.798285 1.88788 2.97102 -0.0380626 0.141233 0.222488
21 2 3.98183 23.21 45.2535 -1.15598 -3.3597 -1.18184 0.555061 -0.596341 -0.0452758
22 1 22.6997 5.14851 14.9585 2.36957 -1.77738 -1.96722 0.340088 0.185253 -0.295116
23 1 51.8987 2.98904 28.438 -6.30035 -0.982849 4.02962 0.376376 0.00291917 -0.258006
24 2 22.5064 5.82797 11.4008 0.511972 -1.01974 1.13916 -0.408938 -0.193488 -0.295674
25 1 58.9745 12.0609 25.3762 -2.37699 -1.84601 -0.477752 0.0551881 -0.216752 -0.208757
26 1 39.0375 16.7149 22.6452 -0.563129 -0.547101 1.58497 0.173778 0.398687 0.371418
27 2 56.4469 47.8748 16.6066 -0.633767 1.16755 -0.445034 -0.451054 -0.59681 -0.36039
28 2 31.565 14.6184 25.0886 2.29772 -1.77177 -1.87682 -0.603267 0.0859588 -0.135444
29 2 35.5879 58.1396 50.0877 1.00458 -1.82947 -1.11504 0.0835932 -0.807072 -0.474017
30 1 39.5563 24.7967 23.3452 1.16575 -0.987685 0.305573 -0.187129 -0.180388 0.297661
31 2 56.4171 24.9096 12.346 -0.445784 0.33504 -1.46939 -0.809871 -0.00847833 -0.121243
32 2 10.8258 32.2681 3.65372 -0.280445 0.19726 -0.0404902 -1.17175 -0.568607 -0.734534
33 2 36.739 13.3965 41.009 -1.7012 1.43115 0.00909936 0.0530007 0.440976 -0.398473
34 1 23.2441 53.0553 32.1448 -0.418957 -2.95158 -0.521527 -0.281531 0.63127 0.405061
35 1 55.7921 15.5273 31.2097 -0.642317 0.495651 1.84107 0.703011 -0.351784 0.100327
36 2 48.5697 49.7623 31.7008 3.23243 1.48354 -0.0733333 0.240117 0.268034 0.0619878
37 1 33.0071 17.3865 31.734 -0.560117 -1.32934 0.715519 -0.0791606 -0.128028 -0.04587
38 2 44.5868 15.1819 11.2249 1.81248 -1.65987 -0.333867 0.121282 -0.0249342 0.00558844
39 1 53.8357 55.1571 18.4212 -0.0849687 4.22459 -1.82518 -0.726513 -0.383642 -0.205812
40 1 29.3763 54.8646 24.9812 1.02127 -0.521355 1.01976 0.606456 0.162014 0.564735
41 2 50.6973 51.9052 55.1051 3.03758 -0.9732 1.68601 -0.213615 0.0873434 0.17365
42 1 44.3682 2.94038 53.872 -1.32844 -0.535222 -0.828885 -0.00299135 -0.183794 -0.254604
43 1 5.24655 11.4765 45.4909 1.73744 0.862819 -1.38563 0.275591 -0.30299 0.0112216
44 2 42.2255 38.8053 33.5283 2.02378 -1.37343 -1.03169 -0.091046 0.140521 1.02405
45 2 44.7656 37.9337 31.9575 -0.733184 -0.635502 -0.642938 -0.436743 0.0827537 0.136422
46 1 41.4539 58.1301 55.7817 -0.564386 -2.2769 -0.188852 -0.333536 0.269541 0.149125
47 1 48.272 12.6112 24.3773 1.53987 0.980183 1.18536 0.214982 -0.265125 0.0750889
48 2 40.1428 46.3315 38.571 -1.53781 -1.11939 -3.55445 0.932117 -0.586327 -0.0150713
49 1 27.6285 51.9792 45.1984 -4.52473 0.972033 -0.455733 0.0608626 0.326631 -0.335269
50 2 19.3685 47.723 56.5776 -0.135554 -1.38871 -0.634396 0.145369 0.518461 -0.156128
51 1 15.5276 2.65124 45.5868 -0.0648533 0.0134018 -0.861964 0.117591 0.202482 0.235389
52 1 18.7035 45.6334 49.2397 -1.08006 -0.866193 1.68628 0.25964 -0.253192 -0.344579
53 1 10.6943 27.6107 6.66182 1.16759 0.0111124 1.30142 -0.172601 -0.27186 -0.144626
54 1 32.7653 12.9026 52.959 0.240592 2.16925 0.276465 0.491907 -0.859593 0.479172
55 2 52.1644 25.5552 29.3663 -0.646862 1.05811 2.34903 -0.460569 -0.232028 0.232846
56 2 22.1355 59.2797 56.4103 0.419978 1.46959 2.06558 -0.286056 -0.0612647 -0.149445
57 1 45.69 21.4936 43.8464 3.81953 0.333927 2.13508 -0.458536 0.138064 0.06723
58 2 37.5196 54.1058 55.4565 1.85858 0.699845 -0.91024 0.703946 -0.502036 1.11096
59 1 20.2187 4.25859 2.69425 -0.113232 -0.413011 0.57024 0.415046 -0.162316 0.0786534
60 2 10.5885 9.36619 17.8087 -1.81012 0.77267 -0.969864 -0.0367774 0.390676 -0.343708
61 1 24.3855 39.6583 22.326 1.899 -0.833977 -3.91473 -0.213992 0.207383 0.21891
62 2 57.6292 26.6546 1.30843 -0.316987 0.693588 2.3116 -0.0906995 0.00321797 -0.206561
63 2 50.1395 22.8575 40.9253 -3.50823 -0.683644 3.17265 -0.216513 -0.158127 -0.317754
64 2 5.67266 32.2739 29.865 2.11655 0.408943 2.46012 -0.359655 0.00477599 0.221504
65 1 27.5439 15.0704 13.5414 0.112254 -2.62552 1.75154 -0.463285 0.0548535 0.430948
66 1 37.5388 25.4177 31.2354 0.900612 4.32606 -0.42503 -0.724583 -0.759301 -0.234642
67 1 35.9789 34.7785 52.6283 -5.23865 1.60982 -0.0726015 -0.15473 0.341844 0.36344
68 2 43.8743 46.0581 57.8523 -0.132621 0.413616 2.20198 -0.514167 -0.453868 -0.279619
69 2 23.5918 55.7432 30.4816 1.16534 -0.162739 -3.98327 0.188874 0.640541 -0.740788
70 2 16.3233 17.3883 18.065 2.51424 -2.36175 0.0900495 0.81134 -0.627716 0.00197567
71 1 20.3606 4.61592 10.1733 -2.3255 0.138363 0.910219 -0.542845 0.0197077 -0.276973
72 2 5.01671 42.5887 12.0962 1.12162 0.486787 1.77795 -0.0596899 -0.00242076 -0.391202
73 2 43.0002 12.6701 50.3398 0.718359 -1.53916 -0.416165 0.253526 0.145374 0.237518
74 2 26.7238 22.0386 50.0262 -0.756775 -1.43429 1.51146 -0.0908645 -0.181654 0.208365
75 2 29.7387 57.5618 31.8082 0.77944 -1.01166 1.35877 -0.580414 -0.848465 0.0327632
76 2 19.7821 55.2397 56.394 -3.4162 -1.43304 -0.040321 0.815853 1.04211 0.624935
77 2 12.9995 22.3736 27.8445 0.680047 3.11307 -2.17893 0.11847 0.226931 0.147406
78 1 3.43045 19.747 19.5698 1.0169 -1.53917 -5.21873 -0.194011 -0.626305 0.0440164
79 2 51.9743 10.9357 29.5839 -0.8043 -1.97948 -2.2654 -0.743994 -0.304966 0.787264
80 1 10.6048 20.3112 23.8833 -3.07117 -1.88333 1.04421 0.1654 -0.45216 0.0855422
81 2 5.08282 45.7737 27.0202 -0.697333 2.03067 -0.0220668 -0.733465 -0.545821 -0.179293
82 2 31.8195 17.3829 56.1012 -1.97795 0.117368 1.65109 0.383074 0.180019 0.0248341
83 2 7.06452 39.4838 31.682 -2.81816 -1.53749 -0.878981 -0.0280068 -0.549798 0.429733
84 2 45.3023 27.9116 45.9431 1.9768 -2.22485 1.42015 -0.0129998 -0.222633 0.631342
85 2 54.3124 12.568 52.6104 -0.0729293 -1.03468 -0.142934 -0.447457 0.53009 0.111733
86 2 6.95378 10.9244 3.56551 0.369735 -0.505204 5.07222 0.265696 -0.595142 0.140942
87 1 12.089 11.8659 22.2158 1.53654 -0.396773 0.730154 -0.265039 0.267703 0.0187076
88 2 22.0799 59.1154 34.1347 -2.14054 -0.0463267 3.18139 -0.485007 0.088458 -0.901918
89 1 28.2587 12.7443 46.3524 1.05064 0.732289 -2.76936 0.713284 0.0293077 -0.429199
90 2 35.2268 55.8821 4.46516 -0.566333 -0.989317 -1.63172 -0.0288295 -0.0175013 0.237495
91 2 3.80436 49.3198 21.7344 -1.89763 -1.50263 1.11965 -0.794604 -0.303055 0.292452
92 1 42.3853 7.43854 8.46368 0.0336728 2.02865 -3.94163 -0.287909 0.226607 -0.502588
93 2 6.27534 46.7587 18.5164 -1.77158 0.188073 -1.19709 -0.638185 0.0444534 0.391157
94 2 6.32722 26.2468 37.4197 2.66004 0.0622078 1.91591 -0.0227292 -0.114981 -0.0832756
95 1 26.1631 42.4935 52.4982 -3.32604 -2.54108 -1.45314 0.373111 -0.175309 -0.0532406
96 1 7.92115 36.5228 27.7924 -2.5091 -1.30343 -3.69485 0.453671 -0.911995 -1.216
97 1 0.319862 2.41966 58.1022 -1.54039 1.54403 -0.40454 -0.494521 0.156357 0.006786
98 1 18.4811 33.1284 1.44314 -2.01711 2.17772 -4.14198 0.150792 -0.0755098 0.215629
99 1 53.7958 1.91852 51.9279 1.86365 1.99278 -2.82276 -0.0225987 -0.321164 0.0379075
100 1 12.2141 40.4827 57.2002 0.891179 -2.96043 1.82433 -0.111846 0.014247 0.285008
101 2 5.50927 44.6164 40.3723 2.07021 1.42637 3.90538 -0.411039 -0.204759 0.177559
102 1 18.5847 6.52971 49.5229 -0.369477 -0.801582 -3.52923 0.575595 -0.508812 0.474454
103 2 40.7028 31.0494 34.7347 1.40226 -0.453077 -0.304405 -0.0644374 0.163919 0.685783
104 1 47.6773 24.0933 20.1183 -1.62568 -1.58066 7.06445 0.195987 0.0509815 0.105665
105 2 33.0467 39.9386 20.3903 1.75018 1.01302 -1.83982 -0.0583396 -1.3901 -0.0382143
106 1 30.7527 0.365857 2.18518 2.89967 2.15617 2.9423 0.414915 0.316861 -0.167152
107 2 56.6768 16.8599 26.5642 -1.01535 0.931135 2.09789 0.643133 0.158781 -0.249643
108 1 5.62316 27.9147 27.6523 1.07796 -0.948659 -0.738758 -0.397446 -0.393184 0.354426
109 2 32.1573 20.2571 22.4293 0.916259 -1.32728 0.0459536 -0.17378 -0.853098 0.119095
110 2 37.5874 0.280622 30.3428 0.213171 0.981978 -0.980114 0.177221 0.26533 -0.192112
111 2 8.72567 55.6418 24.1172 0.0428021 1.86677 -2.1956 0.315121 -0.14499 -0.285859
112 2 54.5086 30.6221 20.3209 -0.0815974 1.11095 0.0370815 0.445799 0.0111812 0.555343
113 1 20.4476 15.5905 52.5198 -1.31663 1.45121 2.15373 -0.435682 -0.0892842 -0.105082
114 1 14.6807 13.0372 31.1054 -1.79833 -0.644949 -3.25447 0.175644 -0.315064 -0.427996
115 1 46.3633 47.4774 58.0099 3.50131 -5.74567 0.689591 -0.344288 0.643634 -0.31229
116 1 45.1526 42.8954 22.0578 -1.78119 -1.32875 -0.297629 -0.429297 -0.398644 0.546305
117 1 23.685 27.667 31.8161 1.65661 -1.22035 0.923191 -0.0545771 -0.0679091 -0.173686
118 2 1.97716 47.1995 56.7558 -0.519237 -0.0822095 -1.16108 0.37651 0.45993 -0.307475
119 1 52.4403 57.431 39.5802 1.8492 -1.87233 -0.409079 0.203181 0.226323 0.889276
120 1 41.4904 0.228667 52.0636 -0.715884 0.584066 -0.587112 0.548665 -0.146971 0.898338
121 1 24.0194 41.1945 38.0087 1.69011 1.36655 -3.04615 -0.54451 0.240678 -0.306521
122 2 53.5857 36.2102 33.4786 -0.944608 -0.736148 0.795161 0.0547532 0.224128 0.457257
123 1 2.85594 12.4845 42.137 -0.707291 2.6272 -1.30603 -0.251023 0.290993 -0.131005
124 2 39.3295 26.4652 46.8411 -0.191134 1.86928 -1.68159 0.039122 0.02339 0.549052
125 1 50.9953 14.3169 40.9372 -1.35611 0.251194 -2.8207 -0.30066 -0.204721 0.0579013
126 2 43.4886 39.3055 36.439 0.328034 3.19569 1.65223 -0.377563 0.47081 0.210622
127 1 7.43538 40.9349 36.676 -4.13397 3.8017 -1.11629 0.186275 0.0847964 0.0708403
128 1 11.7921 15.9926 22.5132 -0.928505 2.80091 -0.00209358 0.311933 0.167987 0.100993
129 2 18.1491 3.05822 7.46935 -2.98053 1.20928 -1.23707 -0.357115 0.0593076 -0.35657
130 2 55.7088 16.402 48.2527 -4.76413 0.134835 -2.59506 -0.222194 -0.631002 0.450344
131 2 20.5085 37.4683 41.123 -0.799554 2.14237 0.444165 0.418736 0.0689775 0.199046
132 2 34.5085 8.54222 9.27386 -0.298337 2.1988 1.9822 0.430707 0.1592 -0.353304
133 2 46.2338 21.3863 38.1913 1.55252 0.6155 -0.546959 -0.0213175 0.271843 -0.220687
134 2 58.6756 49.0169 18.2301 1.76092 2.62655 1.38274 0.409616 0.616063 0.10541
135 2 16.4858 54.1667 16.0001 1.37388 3.1023 1.47205 0.277014 -0.307181 0.36582
136 1 53.0549 17.8698 14.7111 -0.297349 -1.54105 -0.696384 -0.133995 0.0524872 0.446712
137 2 5.07569 44.9206 2.30693 -0.996244 -1.17837 -1.36521 0.53057 0.0228673 -0.310576
138 2 42.8496 20.8527 18.1839 0.671265 -2.81015 2.04027 0.794066 -0.0466083 0.109832
139 1 10.9705 24.1621 42.2866 -2.34996 0.528984 1.15513 -0.101743 -0.481827 -0.0526886
140 1 3.55702 8.04708 50.8071 -3.30946 -1.5906 -2.09681 -0.3993 0.156875 -0.315735
141 1 39.0524 42.6059 10.5466 0.23384 2.33619 1.39962 0.576898 0.735975 0.218552
142 1 16.6614 31.2896 38.2115 -0.161321 1.06113 3.46974 -0.156746 -0.00324285 -0.466819
143 1 56.0444 19.5346 1.73499 -0.373158 0.935721 -0.850593 0.59737 -0.14561 0.44538
144 1 45.0389 8.7378 1.96059 -2.2014 1.07449 1.29799 0.315613 -0.515291 0.242062
145 2 16.3416 27.1974 41.7273 0.693565 2.27909 -2.19417 -0.119565 0.110541 -0.158684
146 2 48.0751 25.1102 41.7112 1.07246 0.274296 -2.60514 0.22116 -0.391646 0.0759985
147 1 36.3395 43.0848 50.0213 1.70197 -3.6438 -1.76143 0.653323 0.252201 -0.184307
148 2 49.6054 49.7738 20.3433 0.13022 2.23337 1.29184 -0.774675 0.402415 -0.461428
149 2 28.2633 48.3029 57.0197 -0.571724 -2.06124 -0.942233 0.197649 -0.0291459 -0.169972
150 1 40.9671 12.3763 17.0592 -0.120493 -0.540338 -2.39733 -0.180977 -0.0115284 -0.103094
151 2 1.08374 30.441 42.1913 -0.596109 1.70064 0.412365 0.408301 -0.383381 -0.224985
152 2 45.0587 29.5411 32.4883 -0.596435 1.03747 1.52241 -0.240949 0.0777575 -0.466379
153 2 2.10812 59.4161 3.27968 2.82839 0.732568 1.425 0.141621 0.130267 0.565683
154 1 33.7636 6.59588 40.3597 -0.617955 -2.76023 -2.20495 0.377399 0.497746 0.242905
155 2 4.56751 56.829 18.3454 -0.0266021 0.156267 0.201763 -0.523326 -0.079784 0.208642
156 2 5.57758 6.54163 55.9815 -0.437014 -0.196334 0.60159 -0.099842 0.485768 1.65891
157 2 51.3785 43.2612 37.6348 3.55627 -0.824166 1.05828 -0.0574381 0.464471 0.25374
158 1 26.9261 9.40679 24.5955 -0.97111 -1.31594 -0.982725 0.593587 0.283104 -0.504488
159 2 50.0403 19.8733 56.756 -2.512 0.680503 -1.71809 0.0740749 0.509611 -0.526063
160 2 19.6702 55.3011 53.3837 -0.531397 -1.61313 -1.63788 0.768873 -0.00168104 -0.213124
161 2 2.3813 25.414 52.4091 -1.6225 -1.69128 -0.832217 -0.140335 -0.250376 -0.198163
162 1 8.72598 16.1903 27.1578 -2.53814 -3.94302 -4.23108 -0.0767806 -0.296506 -0.0125897
163 2 5.19194 32.0926 1.46705 1.18787 -1.158 0.568109 0.112738 -0.423947 0.204165
164 1 28.4422 40.5678 4.05175 1.92498 0.0053328 1.23999 -0.698906 -0.221491 0.132765
165 1 30.0005 50.4633 25.925 2.6698 1.38403 3.41677 0.410359 -0.16836 0.0350363
166 1 21.2526 45.5621 57.4007 -0.747952 2.19135 2.77723 -0.428345 -0.0998772 -0.178925
167 1 20.8056 9.78114 8.7916 1.9382 2.58611 -1.04406 -0.605455 -0.17226 -0.798146
168 1 54.9714 5.98207 2.43851 -1.34456 0.49475 -1.14883 0.238535 -0.31158 0.0834896
169 2 8.19962 6.30449 5.76592 -0.219864 1.11969 0.996803 0.192816 -0.176625 -0.252628
170 1 25.8515 30.9174 23.0416 0.482878 -2.26648 1.33468 0.309944 0.0380548 0.310237
171 1 53.2813 4.07033 16.9197 -0.844174 -0.595318 1.13272 0.0550068 0.180771 -0.709348
172 1 10.3429 37.4111 4.00743 -0.538238 0.886863 -1.60925 0.205142 -0.301362 -0.00664377
173 2 47.1483 26.9937 27.5866 -0.559524 1.15769 1.8835 0.252564 -0.811056 0.19519
174 1 14.394 14.3866 14.9449 -2.45674 0.610905 -2.93727 0.531947 0.102732 0.43445
175 2 25.0633 14.4411 18.5455 0.660995 -3.52776 -1.03523 -0.740531 -0.136532 -0.461432
176 2 7.97988 28.9353 50.2399 1.29291 0.489535 -1.099 0.103161 0.0208252 -0.0344636
177 1 49.5346 4.57117 45.7286 1.12317 -1.60206 -0.122497 -0.206366 0.0300502 0.705903
178 2 32.6087 51.6101 6.95864 -0.227546 0.678019 -4.08007 0.255257 -0.240693 -0.854113
179 1 58.4667 9.48696 12.8881 4.1131 2.62317 -0.600077 -0.229473 0.143234 -0.026248
180 2 51.209 53.764 1.26537 0.517981 -0.894376 -0.333961 0.232636 -0.325426 0.0459429
181 2 9.59255 30.674 13.6637 -0.0145963 -0.132909 -1.08056 0.391387 0.062619 0.210551
182 1 38.4747 50.8978 9.74634 1.05737 -0.52016 0.493293 -0.2066 0.402035 0.0712322
183 2 1.9943 40.8309 3.06285 -1.95697 -1.88918 0.65778 0.00479201 0.709647 0.0912536
184 2 13.7111 21.9474 56.7807 1.25273 0.191957 -2.40669 0.0286611 0.389128 -0.256798
185 1 26.8377 11.3497 35.4493 1.91133 0.231564 2.05325 -0.519706 -0.00842472 0.27689
186 2 52.0245 2.58101 47.3106 2.21261 1.52211 -1.66396 0.118428 0.342485 -0.575159
187 1 43.6417 22.084 45.5258 3.05918 -1.2114 0.61435 0.214797 0.040886 -0.21981
188 1 31.0475 9.48595 3.86839 0.907667 0.195386 -3.46988 0.20692 -0.148364 0.488195
189 2 25.7596 17.7593 52.6118 0.588751 -2.41264 0.235006 0.167696 0.112706 0.191006
190 2 13.2944 41.0534 11.7515 -3.03991 1.43416 0.24666 0.379432 -0.497734 -0.0851027
191 1 28.0557 46.5985 50.6627 -1.15239 -2.71401 0.250205 -0.203559 -0.11486 0.107128
192 2 1.10954 10.4221 15.2381 2.9468 1.55622 -1.50929 0.806025 -0.567896 0.716805
193 1 57.2184 42.0913 33.3009 3.12135 -1.58465 0.332982 0.380047 -0.25045 0.38434
194 1 11.4968 50.1679 18.9912 0.871558 -2.5184 0.884811 -0.0337836 0.687871 0.368677
195 1 51.8354 28.1639 42.4469 1.38393 -2.94771 -2.34705 -0.633451 -0.11533 -0.00443878
196 1 16.0596 56.0858 29.4866 0.910838 -1.68447 -0.0479488 0.997811 0.477263 1.20343
197 2 32.1693 0.518707 59.1475 0.228446 0.0777344 0.594451 0.435426 -0.247732 0.450376
198 2 31.3751 51.7573 0.214767 1.81986 -0.860434 1.54417 -0.656511 -0.46403 0.240472
199 2 11.1484 24.8728 11.1944 2.09464 0.201443 2.69647 0.141976 0.128195 -0.120866
200 1 56.2004 16.2393 8.58643 -2.52024 0.22157 -0.924223 0.244539 1.17537 0.0100462
201 1 8.61431 56.0557 4.68712 5.05232 0.0440557 -2.2688 -0.704836 -0.235345 -0.439055
202 2 4.76155 12.0896 40.447 -1.83944 -1.49401 -0.0612286 -0.212466 0.217447 -0.162714
203 2 57.4985 11.8341 33.4394 -0.551555 -0.799775 -0.604342 0.354553 -0.504384 0.166117
204 1 31.4253 40.2449 31.314 -0.538483 -2.71709 2.48465 -0.0554899 -0.146696 0.198959
205 2 20.27 58.75 23.8476 1.33547 1.41052 1.13451 -0.772607 0.353671 -0.276514
206 2 4.20304 34.6819 3.79161 0.78251 1.00824 0.566968 0.440588 -0.509842 0.181335
207 2 13.3404 51.6794 20.3563 1.34226 -4.41747 -1.66105 0.0487644 0.103274 0.451283
208 2 53.4769 33.1681 12.8109 -0.47938 2.41176 -1.75995 0.124555 -0.472675 0.369474
209 1 19.8969 11.381 57.2379 0.238344 -0.0906938 1.57603 0.395407 0.0113428 0.332044
210 2 2.79788 2.39566 50.6787 0.335218 -0.0732732 -1.22852 -0.67091 0.381444 -0.438526
211 2 34.3042 16.5998 18.1508 0.419542 0.717997 -2.09427 0.705687 -0.356984 0.198039
212 1 57.3543 31.2252 30.7013 -2.08215 0.563904 -1.81431 -0.00173489 0.334687 0.106995
213 2 26.3785 14.9741 28.4982 0.203091 -1.46518 -2.47675 0.421586 -0.383677 -0.166105
214 1 40.7807 42.6715 26.2981 0.658361 2.13347 0.397921 0.123838 -0.30169 -0.255708
215 2 51.858 20.9006 25.6538 -0.735295 0.146272 2.92924 -0.581783 -0.691967 0.177192
216 2 14.8192 49.6915 22.4964 -1.74228 -2.20229 -1.16546 -0.020039 0.135395 0.161358
217 1 38.3694 39.9264 23.5889 1.63597 1.13337 5.10377 -0.115683 0.421685 -0.503505
218 2 55.4653 20.833 56.4433 0.871083 -0.197655 -1.34531 -0.828232 -0.170692 -0.1956
219 1 49.8345 28.2575 27.5852 0.805025 -2.16379 -0.369613 -0.430936 0.690878 0.37297
220 1 41.0583 24.5836 45.247 -1.954 -3.22425 2.54414 0.132455 0.193595 -0.101277
221 1 27.602 49.9003 41.1238 -1.16267 1.03438 -0.494264 -0.489744 -0.163098 -0.237074
222 1 54.1015 34.6726 4.8472 1.29633 1.55004 -1.0086 0.0758236 0.895393 0.687351
223 1 42.6068 42.9798 6.3162 -2.23742 3.39901 -0.162821 -1.10678 0.0251031 -0.0209067
224 1 9.13012 47.154 4.25295 1.23221 -1.03563 0.719888 -0.123482 -0.166121 -0.0291513
225 2 33.7576 24.8779 21.6071 1.27227 -0.0272177 -1.43268 0.650222 -0.333413 0.614213
226 2 45.5055 7.02924 56.5717 2.11723 1.22431 0.754517 -0.0939874 0.441176 0.0230462
227 1 8.4575 8.35232 19.7014 -2.71973 0.285815 0.800976 0.105415 0.179358 -0.448376
228 2 0.408758 44.629 50.131 1.09807 -1.33617 -2.43672 0.34192 0.152848 0.145233
229 1 18.7659 10.9168 36.4129 -1.15269 0.822978 -0.366229 -0.00603541 0.289898 -0.401486
230 1 48.7092 45.1084 32.7779 0.499246 3.75339 1.05547 -0.325435 0.0237202 -0.300742
231 1 54.504 25.7196 21.7437 -2.04368 1.63516 -0.227145 -0.322945 0.130886 0.458646
232 2 49.1492 0.681611 30.6774 2.05335 -1.05142 -0.779199 -0.407619 0.32513 0.428546
233 2 33.5314 56.2127 7.34048 -0.734484 0.0586828 -1.01044 -0.0716022 0.214755 0.165728
234 2 56.073 54.0541 46.5281 -0.731667 2.13693 -0.446353 0.808381 -0.0839127 -0.376928
235 2 54.8011 16.0741 10.8584 0.644622 1.07251 1.43982 0.188897 0.223941 -0.0512623
236 2 6.75767 29.3636 33.2297 -0.389647 1.0443 -0.437744 0.360462 0.398637 -0.0454498
237 2 57.2596 14.9283 1.64339 -0.434832 -1.01879 0.534426 -0.234565 0.331924 0.339804
238 2 56.4471 31.4308 43.347 -1.29795 1.65515 -0.259487 -0.562643 -0.2279 -0.245343
239 1 45.6618 16.753 34.3878 2.34529 -1.4798 -0.333361 0.321879 -0.776637 -0.0113786
240 1 45.1843 13.5051 55.7827 0.907753 0.742238 0.270573 0.290848 0.72912 -0.657647
241 1 52.7733 18.6398 36.5147 -2.72462 -1.56468 2.04877 0.393173 -0.591546 0.374078
242 2 25.8313 26.0847 17.3991 -2.0718 -0.469167 -2.26948 0.202349 0.47184 0.914829
243 1 32.7532 25.3546 39.2007 0.283714 1.09792 1.02831 -0.882559 -0.436026 -0.625467
244 1 4.7125 32.6822 45.2625 2.16146 2.64737 1.26348 0.422776 -0.412282 -0.229512
245 1 17.9873 44.4563 42.6799 1.28387 -1.52167 -1.8294 0.120315 -0.294327 -0.266802
246 2 58.5697 22.7204 13.3035 -0.526271 3.24519 1.24606 -0.0634152 -0.616595 -0.0309038
247 2 11.5132 8.43721 26.0605 2.77493 1.86878 0.47781 -0.0140775 0.123257 -0.194526
248 1 15.4536 11.7504 25.8619 0.125343 0.989246 1.26007 0.514881 0.611109 -0.439852
249 2 14.065 21.5643 20.5286 2.89287 0.184796 -0.270726 -0.1294 -0.516269 0.589412
250 1 48.0105 40.7712 55.3784 2.60103 -2.31658 -0.4307 -0.28545 -0.347773 -0.0460685
251 2 29.6709 31.5714 8.53166 0.267573 1.88558 1.98667 -0.220083 0.491468 0.0791917
252 1 2.8515 2.42435 32.7554 -3.43829 -1.49492 4.84933 -0.105438 -0.0871572 0.0752382
253 2 32.4155 26.9894 16.7554 0.641832 2.46426 0.652621 -0.609922 0.12745 -0.0354873
254 2 34.8905 34.5886 7.65811 -2.23913 0.667983 1.03167 -0.35105 -0.478688 0.256341
255 2 30.2991 35.5048 59.2315 -3.80014 0.756832 -1.7139 0.350026 0.828471 0.198621
256 2 48.6647 14.7412 14.5619 1.26664 2.83873 1.73826 0.274146 0.0715092 -0.0926559
257 2 17.3852 2.15822 43.5524 -1.06966 -1.70638 2.71521 0.251162 0.00698069 -0.0266697
258 1 45.8226 3.7542 36.9379 1.18715 -2.50137 4.45501 -0.509343 0.314 0.667213
259 2 35.7626 31.1662 3.273 0.226884 0.179799 1.06604 0.479379 -0.429247 -0.899594
260 2 3.55834 19.9364 57.4918 -1.77887 -1.95965 -1.57047 -0.349294 0.176975 -0.265572
261 1 52.255 57.9171 14.8318 0.0324243 0.169156 -0.973065 -0.14135 0.0342494 0.156192
262 2 33.594 23.8587 4.55997 -1.49181 1.04701 0.931632 -0.584176 0.587696 0.207451
263 2 10.1309 10.9422 3.13749 1.60083 -1.82525 1.50192 0.334619 -0.00760195 0.0365035
264 2 24.2658 22.9077 51.6102 1.8286 2.55182 -0.332892 -0.145628 -0.0114735 -0.0717196
265 2 16.1941 45.5985 10.9779 1.92391 0.326501 -1.40147 0.480162 0.526843 -0.0894062
266 2 36.3042 33.3831 40.8609 -0.17963 0.897107 2.99317 0.25048 -0.101222 0.903793
267 2 32.3223 54.3644 19.8788 -0.953735 1.34858 2.31391 0.272515 -0.954033 -0.349344
268 2 7.8222 17.2723 41.8118 -0.124303 -1.19524 -1.57022 0.149375 -0.326663 0.1494
269 1 19.6086 52.1204 16.9446 -1.80892 0.815054 1.14135 -0.0799967 0.00765721 0.337768
270 1 51.0439 21.6048 45.679 1.39104 3.58831 -1.28096 -0.138481 -0.0646286 -0.833246
271 2 6.38238 0.562979 26.5748 3.44311 -0.822006 1.36103 0.474182 -0.209515 0.11639
272 2 19.9494 23.0454 9.81757 1.14342 -0.838743 -1.27208 -0.03261 0.28043 0.149863
273 1 7.76073 27.5781 11.0147 -0.657011 2.64293 -1.67716 0.351945 0.162469 -0.497052
274 2 2.32339 35.8119 6.25446 -0.485336 -0.747956 -1.7292 0.185641 0.284396 -0.0177929
275 1 33.8742 52.8441 38.7447 0.561982 0.135038 4.31064 -0.623374 -0.179976 -0.220568
276 1 18.3458 31.7733 43.2758 -2.39574 -1.92825 2.18251 -0.325531 0.129814 0.125989
277 2 34.487 19.4621 39.705 0.995067 -0.246815 0.95933 -0.0684204 0.532179 0.497619
278 1 15.5413 22.1682 44.4333 -0.203412 0.949878 1.9243 0.0248649 0.985754 -0.191329
279 2 10.7534 1.21741 53.7883 0.31484 -1.81632 -1.50037 0.0356366 -0.00958207 -0.302136
280 2 2.56685 59.1145 38.8085 -1.81974 -0.0426596 -1.54446 0.0263503 -0.241951 0.212776
281 2 12.0471 29.3229 2.2622 1.19327 0.0579822 0.11819 -0.117052 0.443263 -0.130302
282 2 32.157 2.86092 12.0933 0.603867 0.617722 0.0464291 -0.326274 0.410354 0.220547
283 1 51.5454 43.2761 2.6807 -2.36211 -0.07675 -2.18373 0.512298 -0.223314 -0.23421
284 2 42.8986 20.5558 35.7001 2.56958 0.503442 -1.50314 0.318247 0.140579 -0.131494
285 1 58.5867 21.2289 18.6299 -0.828093 0.28204 -2.28022 1.32271 -0.553297 0.88461
286 1 3.81249 52.1494 47.6259 -0.651136 0.686226 0.909135 -0.558328 -0.07239 0.215974
287 2 23.8045 0.666448 8.94354 -0.0716142 0.380022 2.76953 -0.0202826 -0.208534 -0.276511
288 2 56.7771 30.5007 35.6 1.72685 -2.94452 1.81942 0.735634 -0.194187 0.0966259
289 2 16.0522 53.8675 31.0229 -0.346408 1.97537 1.21384 0.145946 0.279679 0.351936
290 1 55.8812 13.4975 46.2526 0.240857 -2.97473 4.10187 -0.246633 -0.100355 -0.291438
291 2 52.4604 6.64958 55.585 -0.454722 -0.460738 1.75117 0.15037 -0.0255192 -0.074777
292 2 38.6928 4.74951 7.83938 1.54931 0.042855 -0.25755 -0.28762 0.503095 -0.215272
293 2 2.85095 56.0798 39.9197 2.7499 -2.87397 -2.18215 -0.30168 0.3419 0.132694
294 2 6.53511 54.9046 31.728 1.24015 -2.15284 0.697779 0.0526961 0.423949 -0.61034
295 1 3.98786 33.8242 20.8045 1.83743 3.38853 -0.81785 -0.0853896 -0.562201 0.361543
296 1 41.3302 2.32308 20.5586 2.44518 0.751478 -0.30404 0.373902 0.210493 -0.458493
297 2 52.4524 28.5801 27.4127 -2.45891 1.9189 -1.06286 -0.313858 -0.510525 0.17682
298 2 25.9619 51.1934 43.3048 -0.747706 0.482873 -0.639322 0.567221 -0.656015 -0.714848
299 2 46.1175 20.5062 35.0927 -1.13957 2.18931 5.23949 0.143072 -0.624414 0.404834
300 2 42.4323 47.7525 15.0056 -0.223931 0.0404126 2.08321 0.0948327 -0.258876 -0.0255971
301 1 14.5491 47.3545 28.0636 -0.197712 1.6878 1.02329 0.428613 -0.0169561 -0.22704
302 1 53.3251 13.2511 27.1369 1.04386 0.569969 3.38213 -0.72172 0.700658 -0.265915
303 2 10.7583 51.3826 9.86169 -1.11971 -2.08697 -1.7764 0.299436 0.0598162 0.0577545
304 2 3.54386 8.23792 14.0381 1.32417 -2.3381 -1.13205 0.518697 -0.371038 0.391873
305 1 55.6958 41.0514 8.88889 -1.65671 -0.00209044 -0.268982 0.126397 0.0520764 -0.103661
306 1 57.5608 17.7821 46.9113 0.979554 1.31086 1.55187 0.719981 0.0140643 0.721989
307 1 8.74663 48.4766 53.6868 1.31526 -3.79935 -0.400864 -0.464935 0.139278 -0.282765
308 1 50.6561 39.198 22.1128 0.99089 2.45383 -0.456007 -0.560918 -0.109834 0.466224
309 1 1.47753 27.7968 18.2927 2.24926 3.90871 -3.97422 0.0916699 0.120629 -0.0568879
310 1 27.998 40.6315 6.55118 0.927219 -1.06036 2.06758 0.234844 -0.582185 0.142725
311 1 4.27226 56.625 32.5451 0.634857 -3.16181 -2.92166 -1.68712e-04 -0.0955752 0.0513098
312 2 5.67886 30.6392 50.6727 -0.396893 -1.50088 -1.71245 -0.366322 -0.304884 -0.587038
313 2 9.76092 36.7142 6.68837 -3.41584 1.32115 -2.01844 -0.325638 -0.219393 -0.109777
314 1 28.2026 56.2951 8.59205 0.919713 -1.55984 4.56733 -0.519192 0.569255 -0.278296
315 1 4.58288 52.8228 15.6308 0.576076 -0.59256 0.794268 0.0507027 -0.010403 -0.0183074
316 1 6.71585 3.27552 37.4631 -0.448322 -0.424483 -0.758433 0.1795 0.293575 -0.476718
317 2 30.0076 49.3899 9.39202 1.58237 0.03987 -2.53804 0.0728637 -0.77398 -0.369671
318 2 58.5675 50.2623 9.06049 -0.461955 -1.7012 1.01048 -0.294012 0.786671 -0.629491
319 2 47.5051 5.41855 13.2591 2.53722 -2.16838 1.32213 0.430121 -0.170918 -0.0402512
320 1 8.34234 53.551 5.37155 -0.332317 -4.91809 2.53969 0.291228 0.432082 0.334517
321 2 23.1388 57.0396 47.4986 2.46382 -1.01673 0.517481 0.283131 -0.558231 -0.111168
322 1 10.3493 31.4102 53.198 -0.537792 -0.544567 2.09566 -0.162132 0.139579 0.41107
323 1 38.6654 34.3329 13.9649 1.99556 -2.57204 -2.22813 -0.153092 -0.419032 0.375396
324 2 57.4878 13.222 4.90288 1.6233 0.592088 -2.42218 0.313859 0.157441 -0.229234
325 1 17.7214 3.94511 48.9252 0.182975 -1.51541 1.01868 0.103375 -0.105224 0.166991
326 2 26.7905 2.40733 57.3893 -1.0868 0.711489 -1.44407 0.0635543 -0.0235535 -0.0891764
327 2 27.02 40.8641 21.9134 -1.90711 -0.804397 -1.87849 0.086627 0.432311 0.0946319
328 2 32.7607 31.9509 31.6129 1.12665 4.12135 1.29598 0.0368592 -0.379094 0.116418
329 2 39.5183 3.98223 50.714 -3.5308 -1.18784 0.729841 -0.284214 -0.0129332 0.221021
330 2 48.7654 52.6575 7.05592 -0.794095 -2.05553 0.766931 -0.440939 0.195637 0.16646
331 2 36.3179 16.499 24.459 0.737224 2.29826 1.96374 0.736133 1.0825 -0.782182
332 2 2.45167 17.9464 34.1033 -0.737997 1.4487 0.880715 0.26981 -0.129331 -0.383469
333 2 47.9481 2.74621 11.4459 -1.30665 0.202238 2.94619 -0.3504 0.143365 -0.445707
334 1 55.7213 12.7776 2.33612 3.2579 -1.54316 -2.39493 -0.272381 -0.0942563 0.0604356
335 2 33.0832 55.6445 50.3659 -0.608149 -0.89259 -1.30745 0.177744 0.265653 0.472965
336 2 17.8868 13.0762 34.8077 1.44468 -0.659497 0.0779787 -0.0282784 0.314306 -0.175069
337 1 8.7027 4.11469 4.02623 2.96718 3.14859 0.284892 0.45176 -0.0599957 0.374065
338 1 11.2352 46.1229 28.2872 3.32181 1.04082 -0.00821053 0.255095 0.459167 -0.0475899
339 2 11.752 24.4772 51.9487 2.26443 0.0784284 0.313043 0.351113 0.108401 0.49584
340 1 30.4428 42.4465 57.2129 2.78296 -0.195447 1.40697 0.327453 0.0482815 0.239758
341 2 57.8293 32.2543 53.6843 -0.156882 -0.736857 0.882003 0.108954 0.373958 -0.0430519
342 1 20.399 29.2377 0.100626 -0.384006 1.5849 1.38491 0.267836 -0.299724 -0.156167
343 1 54.1445 18.7603 57.1498 -0.584327 -0.448616 0.247429 0.156991 -0.188464 0.0881143
344 1 20.3286 25.1751 58.354 3.12524 -1.8246 0.00453409 -0.453465 -0.514106 -8.03767e-04
345 1 44.3102 32.1539 23.5883 1.00869 -2.3167 3.76244 -0.318235 0.322692 0.211161
346 1 50.6809 3.00378 30.7457 -1.45136 2.98795 -0.411226 -0.039709 0.0324366 0.0412105
347 2 53.6224 43.1546 0.380739 -2.67424 0.0335109 0.197146 -0.354504 -0.0251905 -0.275319
348 2 23.1768 0.30923 28.4899 1.74651 2.40384 -0.0651932 0.183974 -0.0329328 -0.092233