ITEM: TIMESTEP
22000003
ITEM: NUMBER OF ATOMS
11664
ITEM: BOX BOUNDS pp pp pp
-0.0155956 59.4156
-0.0155956 59.4156
-0.0155956 59.4156
ITEM: ATOMS id type x y z vx vy vz fx fy fz
1 1 33.5966 8.92541 26.3276 -1.11338 -1.25879 1.03289 -0.611218 -0.312308 0.359165
2 2 36.4854 38.4958 24.8714 -2.02049 1.14676 -0.424385 -0.244921 0.0149852 -0.10383
3 1 23.8761 5.07379 59.4161 -2.35613 0.296369 0.967202 -0.477301 0.321371 0.0142356
4 1 9.7437 54.009 22.0016 -0.100473 -0.280027 2.12869 0.704798 0.634643 -0.0722577
5 1 15.165 7.92752 13.0626 0.495776 3.32226 -1.42944 0.369518 -0.043445 -1.10653
6 2 35.9592 39.0519 0.451752 -1.87897 -0.373268 -1.13909 -0.291277 -0.162337 -0.111426
7 1 20.152 1.89061 13.823 1.02885 0.157509 -1.81496 -0.186119 0.459402 -0.0767786
8 1 19.0428 28.814 20.677 2.48263 -0.184061 -3.68488 0.264552 0.51784 0.279332
9 2 43.7679 59.1762 9.91359 1.29108 0.77139 2.30533 -0.0731281 0.390483 -0.0138256
10 2 54.9814 11.7362 9.56608 1.23991 -1.44181 0.683003 -0.312953 -0.425642 0.246727
11 2 33.8336 26.8006 19.5438 -2.93465 0.99552 -1.25513 -0.171291 0.126839 -0.0950226
12 2 22.9523 55.2927 16.1094 -0.86642 -1.1705 0.616853 -0.656098 -0.285549 -0.211292
13 2 15.9668 22.5057 18.2982 0.247976 3.04706 1.86696 0.151202 -0.478205 -0.0589714
14 2 20.2381 5.40833 7.58051 0.749761 -1.02887 0.941645 -0.18437 -0.333934 0.0276283
15 2 52.6243 6.67509 36.6858 1.03021 -0.401243 -0.846147 0.904015 -0.359338 -0.100042
16 1 39.6804 42.5974 53.4347 -0.664231 -1.8714 2.28824 -0.478141 0.259615 -0.0912072
17 1 27.042 23.0977 23.705 0.156864 0.457543 -1.62149 0.338412 -0.0370754 0.0493686
18 1 0.673565 46.1396 47.0551 0.639052 2.41632 -0.211886 0.744138 -0.608229 -0.215204
19 2 33.4679 10.9902 46.2439 0.732411 0.0371205 3.6148 0.137476 0.433502 -0.506046
20 2 1.57981 30.4506 55.3056 0.825323 1.79075 2.79945 -0.0525646 0.151607 0.294596
21 2 3.99407 23.23 45.2579 -1.48056 -2.93355 -1.12476 0.476386 -0.720836 -0.12226
22 1 22.6877 5.16376 14.9719 2.03748 -1.93389 -1.67076 0.374987 0.167079 -0.345028
23 1 51.9336 2.99932 28.4134 -6.51422 -0.938467 4.21643 0.127696 -0.0930527 -0.171206
24 2 22.5038 5.83768 11.3965 0.757544 -0.888917 1.31592 -0.368062 -0.209893 -0.270083
25 1 58.984 12.0742 25.3792 -2.40279 -1.61539 -0.28457 0.0138542 -0.27952 -0.211869
26 1 39.0397 16.7214 22.6379 -0.693235 -0.89865 1.2241 0.113962 0.375748 0.412109
27 2 56.4453 47.8637 16.6108 -0.324281 1.52535 -0.216787 -0.516894 -0.537826 -0.354947
28 2 31.5499 14.6316 25.1004 2.65433 -1.78188 -1.76601 -0.537435 -0.0399132 -0.200138
29 2 35.5811 58.1443 50.09 0.924427 -1.29385 -0.798857 0.160148 -0.864552 -0.514418
30 1 39.5472 24.803 23.3453 1.30793 -0.841125 0.0162505 -0.129765 -0.136366 0.333979
31 2 56.4137 24.9084 12.3575 0.0926484 0.339039 -1.39531 -0.879742 -0.0064908 -0.10113
32 2 10.8284 32.2654 3.65692 0.441039 0.560656 0.418625 -1.08572 -0.569806 -0.708068
33 2 36.748 13.3915 41.0062 -1.67157 1.12816 0.276131 -0.137103 0.503712 -0.444978
34 1 23.2469 53.0708 32.1486 -0.173835 -3.49456 -0.911738 -0.253896 0.570781 0.450615
35 1 55.7934 15.5258 31.1987 -1.27028 0.782729 1.74221 0.677405 -0.280463 0.106751
36 2 48.5477 49.7506 31.701 3.03723 1.28382 -0.0933728 0.348307 0.348074 0.00307205
37 1 33.0097 17.3961 31.7293 -0.488455 -1.19078 0.747431 -0.0756188 -0.169144 -0.0271667
38 2 44.5737 15.1943 11.23 1.71155 -1.6305 -0.344775 0.18302 -0.054539 0.0313424
39 1 53.8302 55.1266 18.4334 0.578752 4.53644 -1.61823 -0.726104 -0.320984 -0.237126
40 1 29.3719 54.864 24.9775 0.436071 -0.662471 0.499897 0.673136 0.151002 0.569867
41 2 50.6753 51.9075 55.0911 3.11021 -1.01579 1.54744 -0.0375063 0.0544053 0.249128
42 1 44.3737 2.94754 53.8722 -1.29775 -0.361942 -0.587735 -0.0581565 -0.194233 -0.270984
43 1 5.24097 11.4736 45.4966 1.48403 1.12069 -1.37712 0.271417 -0.267145 -0.0227276
44 2 42.2111 38.8123 33.5358 2.06297 -1.45489 -1.65977 -0.048555 0.129229 0.962362
45 2 44.7666 37.9363 31.9612 -0.454077 -0.683696 -0.708664 -0.437165 0.0748152 0.0756917
46 1 41.4544 58.1396 55.7789 -0.242104 -2.46535 -0.327681 -0.371294 0.155487 0.158467
47 1 48.2603 12.6076 24.3714 1.31444 1.14588 1.08456 0.271524 -0.101594 0.140801
48 2 40.152 46.3342 38.5907 -2.10054 -0.729561 -3.52139 0.851696 -0.632209 -0.0616628
49 1 27.656 51.9705 45.1975 -4.53404 0.683942 -0.120088 -0.0174523 0.298424 -0.401178
50 2 19.3713 47.7293 56.5766 -0.218844 -1.70611 -0.52335 0.117526 0.491207 -0.188692
51 1 15.5308 2.65626 45.5899 -0.215446 -0.186566 -1.06895 0.212235 0.235831 0.221912
52 1 18.7125 45.6353 49.2254 -1.2949 -0.640245 1.97941 0.217282 -0.238059 -0.305175
53 1 10.6901 27.6102 6.65754 1.27658 0.24923 1.3945 -0.0729526 -0.251082 -0.0666953
54 1 32.7646 12.8902 52.9548 -0.13501 2.8635 -0.14453 0.327419 -0.668578 0.442338
55 2 52.1637 25.5491 29.3527 -0.368747 1.17943 2.1779 -0.412546 -0.158735 0.290512
56 2 22.1337 59.2659 56.3933 0.608154 1.4953 2.12848 -0.309944 -0.0299255 -0.0623182
57 1 45.6632 21.4934 43.8314 4.21247 0.187203 2.03387 -0.423778 0.181896 0.142187
58 2 37.5085 54.0967 55.4598 1.40444 0.984604 -1.6152 0.707102 -0.400563 1.1112
59 1 20.2221 4.26484 2.69556 -0.470304 -0.249609 0.493991 0.368122 -0.19399 0.085971
60 2 10.6024 9.36573 17.8159 -1.77001 0.505369 -0.756808 -0.0764835 0.445634 -0.320008
61 1 24.3745 39.6622 22.3511 2.05073 -0.988808 -4.04191 -0.12891 0.137663 0.0814035
62 2 57.6263 26.651 1.29897 -0.2609 0.68311 2.4097 -0.0834002 0.025112 -0.118196
63 2 50.1566 22.8624 40.9038 -3.31686 -0.569305 3.33678 -0.359561 -0.196718 -0.223744
64 2 5.66337 32.271 29.8506 2.30181 0.427429 2.33299 -0.240526 -0.0665327 0.161169
65 1 27.5423 15.0887 13.5348 0.545698 -2.62392 1.3401 -0.487986 -0.0460864 0.46279
66 1 37.5302 25.3906 31.237 1.52364 4.93277 -0.203264 -0.645069 -0.592494 -0.248514
67 1 36.0087 34.7689 52.6259 -5.02882 1.30521 -0.400414 -0.278652 0.317343 0.358434
68 2 43.8717 46.0521 57.8339 0.212401 0.700423 2.33554 -0.571519 -0.45391 -0.159765
69 2 23.5862 55.741 30.5039 1.01669 -0.577221 -3.46346 0.270715 0.662011 -0.867863
70 2 16.312 17.4032 18.0664 1.97895 -1.92617 0.0949883 0.856482 -0.725731 -0.0174076
71 1 20.3746 4.61937 10.1704 -1.79161 0.103124 1.14293 -0.614588 0.0571209 -0.238994
72 2 5.01402 42.5837 12.0878 1.14317 0.475068 1.99811 -0.0160863 0.036112 -0.315832
73 2 42.9942 12.6824 50.3392 0.521573 -1.59688 -0.556318 0.361107 0.047784 0.204399
74 2 26.7286 22.0481 50.0142 -0.675114 -1.31683 1.36191 -0.160798 -0.17737 0.252361
75 2 29.733 57.5615 31.7998 1.11406 -0.444941 1.32665 -0.477354 -0.925752 0.0607766
76 2 19.8057 55.246 56.391 -3.89955 -2.07466 -0.443768 0.732464 0.985438 0.644395
77 2 12.9985 22.3566 27.8581 0.591992 2.91184 -2.2296 0.153818 0.383143 0.0294421
78 1 3.42821 19.7561 19.6027 1.19091 -0.941425 -5.18255 -0.19507 -0.676826 -0.0982197
79 2 51.9739 10.9501 29.5989 -0.312285 -1.7853 -2.73475 -0.797097 -0.289845 0.706085
80 1 10.6268 20.3227 23.8783 -3.17224 -1.45396 0.958401 0.0726121 -0.478046 0.0945442
81 2 5.08977 45.7578 27.0205 -0.264539 2.34741 0.0597868 -0.624404 -0.468147 -0.0791446
82 2 31.8317 17.3846 56.087 -2.20373 0.0198573 1.59612 0.342888 0.125931 0.136906
83 2 7.08508 39.4903 31.6877 -2.7648 -1.17391 -1.14224 -0.117083 -0.583738 0.407486
84 2 45.2878 27.9248 45.9331 1.96258 -2.04881 0.991683 0.0428079 -0.314333 0.707093
85 2 54.3079 12.5781 52.6077 0.218085 -1.34814 -0.208386 -0.467433 0.464413 0.0935463
86 2 6.95589 10.9294 3.53981 0.193854 -0.127478 4.93846 0.285658 -0.591238 0.244212
87 1 12.082 11.8719 22.2128 1.77074 -0.626562 0.667798 -0.255999 0.237305 0.113551
88 2 22.0931 59.1109 34.1132 -1.82087 -0.0880545 3.71697 -0.504992 0.0411026 -0.80919
89 1 28.2546 12.7428 46.3649 0.395102 0.690438 -2.3016 0.719669 0.0582396 -0.582644
90 2 35.2292 55.8836 4.4796 -0.544152 -0.96822 -1.77291 -0.037408 -0.0428441 0.219403
91 2 3.81851 49.325 21.7296 -1.37383 -1.3007 0.91351 -0.840665 -0.32186 0.347456
92 1 42.3822 7.43083 8.48939 0.265489 1.75664 -3.42909 -0.222541 0.358126 -0.600369
93 2 6.28866 46.7548 18.5262 -1.36575 0.153209 -1.43502 -0.624402 0.0649433 0.366094
94 2 6.31519 26.2468 37.4068 2.64473 0.146846 1.94755 0.0502019 -0.15106 -0.0316014
95 1 26.1846 42.506 52.5029 -3.63615 -2.33681 -1.38711 0.324553 -0.258736 -0.084144
96 1 7.94106 36.5269 27.8114 -2.91275 -0.443506 -2.50579 0.442782 -0.966174 -1.36553
97 1 0.332631 2.4154 58.0999 -1.07682 1.39441 -0.42615 -0.515489 0.16373 0.0424817
98 1 18.4954 33.1146 1.47312 -2.09456 2.23325 -4.23955 0.0290588 -0.0578564 0.0182064
99 1 53.7806 1.91036 51.9412 1.87523 2.27108 -2.82768 -0.0127189 -0.300387 -0.0124683
100 1 12.2114 40.4986 57.1854 0.996122 -2.92955 1.55844 -0.12244 -0.0658548 0.289441
101 2 5.5002 44.605 40.3476 2.28398 1.56369 3.73564 -0.276648 -0.238375 0.325822
102 1 18.5903 6.53697 49.5419 -0.879128 -0.324079 -3.88294 0.540746 -0.533398 0.318339
103 2 40.6925 31.0522 34.7369 1.42692 -0.556102 -0.720352 -0.0235775 0.163007 0.622988
104 1 47.6845 24.1038 20.078 -1.78975 -1.61013 6.86063 0.171947 0.0253263 0.30138
105 2 33.0355 39.9282 20.4028 1.78156 1.86467 -1.7946 -0.0533136 -1.29787 -0.0908379
106 1 30.7363 0.358767 2.17175 2.47094 1.82679 3.05287 0.508388 0.393302 -0.0913664
107 2 56.6796 16.8568 26.5518 -1.40388 0.807556 2.22873 0.586529 0.223314 -0.177876
108 1 5.61969 27.9196 27.658 1.40923 -0.589914 -1.06267 -0.33314 -0.386922 0.359428
109 2 32.1511 20.265 22.4305 1.027 -0.790793 -0.0354424 -0.174602 -0.813414 0.135552
110 2 37.5852 0.28018 30.3482 0.103876 0.797981 -0.854221 0.164774 0.307486 -0.196877
111 2 8.72952 55.6261 24.1307 -0.160151 1.92424 -1.97536 0.324395 -0.0493907 -0.391379
112 2 54.5058 30.6153 20.3233 -0.351785 1.09367 -0.304847 0.404442 0.0363945 0.522601
113 1 20.4558 15.584 52.5029 -0.887538 1.51717 2.23064 -0.499029 -0.0631768 -0.0748852
114 1 14.6944 13.043 31.1235 -1.92433 -0.341712 -2.84338 0.110047 -0.346767 -0.455031
115 1 46.3388 47.5103 58.0004 3.68054 -6.11408 0.873049 -0.0675712 0.203465 -0.0974651
116 1 45.1594 42.9 22.0623 -1.36044 -0.916051 -0.763035 -0.484119 -0.499411 0.473996
117 1 23.676 27.6745 31.8098 1.68366 -1.12979 1.0679 -0.0130019 -0.124418 -0.149496
118 2 1.98563 47.1979 56.7576 -0.760026 -0.353723 -0.924978 0.387135 0.395849 -0.429771
119 1 52.426 57.4382 39.5834 1.6556 -2.06319 -1.21431 0.211721 0.201494 0.878134
120 1 41.4943 0.229641 52.0658 -1.23788 0.742033 -1.40139 0.59364 -0.199838 0.88329
121 1 24.0089 41.185 38.0246 2.12689 1.16468 -2.67832 -0.422401 0.19577 -0.484506
122 2 53.5875 36.2139 33.474 -0.950266 -0.868898 0.520756 -0.0297809 0.200345 0.399112
123 1 2.864 12.4725 42.1424 -0.485112 2.34863 -1.15595 -0.233582 0.306074 -0.190923
124 2 39.3291 26.4546 46.8493 -0.210933 1.82012 -1.99099 0.0224168 0.117301 0.437663
125 1 50.999 14.3174 40.9523 -1.06432 0.424797 -2.83058 -0.331446 -0.177634 -0.0220055
126 2 43.4836 39.2858 36.4284 0.574102 2.83148 1.50688 -0.400293 0.651766 0.236441
127 1 7.46431 40.9104 36.6817 -4.25206 3.73108 -1.15476 0.0943347 0.0513701 0.0193466
128 1 11.8014 15.9787 22.5147 -1.16787 2.57777 -0.0976104 0.221253 0.305972 0.108844
129 2 18.1681 3.05562 7.47978 -2.69942 1.1197 -0.999664 -0.504667 0.212326 -0.381129
130 2 55.7325 16.4022 48.266 -4.5824 0.504718 -2.84505 -0.315367 -0.535644 0.356806
131 2 20.5156 37.4543 41.1188 -1.04709 2.07487 0.308018 0.365892 0.128294 0.227406
132 2 34.5102 8.533 9.26466 -0.510956 2.02393 2.23165 0.240082 0.374036 -0.446687
133 2 46.2217 21.3845 38.1927 1.56208 0.435912 -0.399545 -0.0213781 0.290297 -0.239986
134 2 58.661 48.9992 18.224 1.46926 2.19357 1.29606 0.493976 0.726995 0.156573
135 2 16.4803 54.1435 15.9943 1.16768 3.2548 1.22307 0.363278 -0.194915 0.407168
136 1 53.0524 17.8811 14.719 -0.159403 -1.57402 -1.0928 -0.166808 0.0281199 0.424758
137 2 5.08675 44.9252 2.31907 -1.31055 -1.19256 -1.14795 0.467172 0.0298584 -0.362376
138 2 42.8449 20.8709 18.1739 0.168719 -2.74901 1.93765 0.783226 -0.125188 0.198314
139 1 10.9873 24.1585 42.2775 -2.20285 0.959531 1.1866 -0.208149 -0.464767 -0.0221934
140 1 3.58001 8.06062 50.8152 -2.87461 -1.70584 -1.79099 -0.535902 0.104766 -0.34346
141 1 39.0511 42.5918 10.542 -0.302818 1.64165 1.18659 0.597451 0.77493 0.24062
142 1 16.6641 31.2831 38.1881 -0.0336308 1.01441 3.83007 -0.12277 0.101628 -0.3407
143 1 56.0438 19.5303 1.74596 -0.898639 1.06467 -1.24326 0.556237 -0.141196 0.420167
144 1 45.0503 8.73346 1.95813 -2.44629 1.53666 1.05926 0.233851 -0.505186 0.276136
145 2 16.3395 27.1845 41.7381 0.759263 2.17732 -2.04868 -0.0919746 0.192641 -0.283258
146 2 48.0661 25.1086 41.7249 0.892837 0.526803 -2.60542 0.335565 -0.405887 -0.0575715
147 1 36.33 43.105 50.028 1.0981 -3.82383 -1.58268 0.661466 0.162153 -0.197488
148 2 49.5999 49.7579 20.3363 0.62332 1.95373 1.56931 -0.778332 0.458965 -0.4231
149 2 28.2673 48.312 57.0204 -0.662862 -2.00999 -0.823803 0.0952843 -0.117218 -0.195363
150 1 40.9654 12.3824 17.0754 0.0614928 -0.505006 -2.26155 -0.21812 -0.0639376 -0.182164
151 2 1.0929 30.4299 42.1863 -0.872583 1.94157 0.569123 0.46777 -0.387088 -0.271766
152 2 45.0593 29.5351 32.4779 -0.453663 0.985514 1.78841 -0.203696 0.0777724 -0.382614
153 2 2.0961 59.407 3.27666 2.70552 0.640956 1.04841 0.224577 0.152814 0.609429
154 1 33.7677 6.61761 40.3718 -0.961003 -3.18834 -2.40143 0.379269 0.4555 0.198956
155 2 4.57087 56.8234 18.3465 0.303826 0.19793 0.0500362 -0.515132 -0.0525107 0.269091
156 2 5.58403 6.54764 55.9767 -0.367296 -0.523184 -0.504802 -0.118475 0.541105 1.81316
157 2 51.3535 43.2647 37.6276 3.54911 -1.10225 0.886853 0.0544729 0.419542 0.278596
158 1 26.9339 9.41885 24.6009 -1.43656 -1.57687 -0.5159 0.431632 0.295469 -0.513889
159 2 50.0521 19.8718 56.7608 -2.53209 0.351139 -1.36877 0.00781393 0.521867 -0.560713
160 2 19.6765 55.3064 53.3891 -1.00506 -1.58726 -1.48345 0.726217 -0.0688068 -0.25986
161 2 2.39528 25.4243 52.4099 -1.50907 -1.50378 -0.718845 -0.204565 -0.326666 -0.152972
162 1 8.74442 16.2152 27.1834 -2.42962 -3.60212 -4.12141 -0.147474 -0.430706 -0.206427
163 2 5.18915 32.0983 1.46875 1.10385 -0.874734 0.43904 0.141988 -0.458829 0.197837
164 1 28.429 40.5654 4.04905 2.52556 0.164717 1.06864 -0.630599 -0.131327 0.234649
165 1 29.9856 50.451 25.9054 2.27588 1.54208 3.3081 0.439915 -0.185151 0.185844
166 1 21.2573 45.5461 57.379 -0.353611 2.22005 2.92043 -0.432331 0.0264343 -0.149575
167 1 20.7938 9.76852 8.79911 2.46258 2.71935 -0.279943 -0.556506 -0.130987 -0.870315
168 1 54.9758 5.98225 2.45017 -1.54368 0.758999 -1.21795 0.204541 -0.271057 0.0740394
169 2 8.20488 6.30136 5.76351 -0.330633 1.22403 1.12915 0.158408 -0.160743 -0.171333
170 1 25.85 30.9309 23.0356 0.207282 -2.29674 1.01963 0.292477 0.0400765 0.374492
171 1 53.2825 4.07863 16.9131 -0.882898 -0.732262 1.73517 0.0341315 0.121816 -0.618367
172 1 10.3499 37.4037 4.02132 -0.731659 1.14124 -1.58846 0.220713 -0.259643 -0.0299647
173 2 47.1492 26.9857 27.576 -0.714645 1.65206 1.74521 0.239611 -0.754861 0.22528
174 1 14.4128 14.3858 14.9661 -2.94089 0.516641 -3.27531 0.542369 0.0999221 0.322354
175 2 25.0587 14.4645 18.5527 1.12662 -3.38485 -0.740829 -0.72942 -0.286524 -0.457828
176 2 7.97597 28.9325 50.2429 1.21696 0.455147 -1.06238 0.124269 0.0839898 -0.0723015
177 1 49.5239 4.58503 45.7287 1.30942 -1.61774 -0.799519 -0.206957 0.011004 0.777634
178 2 32.6101 51.6019 6.98518 -0.383204 0.841244 -3.48434 0.236959 -0.277953 -0.992651
179 1 58.4367 9.47507 12.8943 4.2683 2.45435 -0.539749 -0.132283 0.214834 -0.102978
180 2 51.2028 53.7648 1.27221 0.356732 -0.68981 -0.362793 0.27164 -0.313231 0.0485444
181 2 9.59673 30.6747 13.6732 -0.253285 -0.156437 -1.18789 0.358038 0.0131904 0.134158
182 1 38.4663 50.8985 9.74692 1.22395 -0.887976 0.423511 -0.165678 0.408803 0.0791686
183 2 2.01062 40.8417 3.06353 -1.93092 -2.30744 0.601674 -0.0712081 0.622803 0.0795603
184 2 13.7063 21.9483 56.79 1.21831 -0.0678791 -2.20635 0.070702 0.427746 -0.354811
185 1 26.8254 11.3513 35.4369 2.35922 0.247967 1.75939 -0.472681 -0.028937 0.355049
186 2 52.0078 2.57706 47.3165 2.08519 1.30767 -1.2715 0.267614 0.320969 -0.648975
187 1 43.6217 22.0926 45.5188 2.82081 -1.23313 0.810885 0.291393 0.0133261 -0.214515
188 1 31.0425 9.48774 3.89465 0.681972 0.331309 -3.80234 0.282363 -0.147807 0.259282
189 2 25.757 17.7759 52.607 0.470144 -2.46451 0.117031 0.201392 0.071971 0.179797
190 2 13.3161 41.042 11.7529 -3.25314 1.73376 0.292412 0.315669 -0.456264 -0.0620076
191 1 28.0623 46.6116 50.658 -0.941552 -2.57877 0.160563 -0.252392 -0.166311 0.0892037
192 2 1.09822 10.415 15.2509 2.41104 1.86595 -1.93404 0.858048 -0.419788 0.631912
193 1 57.1962 42.098 33.2994 2.71545 -1.30629 -0.0524157 0.492584 -0.349422 0.456646
194 1 11.4945 50.1814 18.9887 0.88344 -3.11271 0.522705 0.0021296 0.628374 0.421238
195 1 51.8217 28.1814 42.4587 1.93156 -2.7827 -2.28277 -0.573811 -0.230584 -0.123108
196 1 16.0593 56.0928 29.4903 -0.0392511 -2.11568 -1.17571 1.06536 0.463659 1.25541
197 2 32.1683 0.522655 59.1399 -0.0425918 0.228314 0.315366 0.415951 -0.226498 0.423594
198 2 31.3627 51.7579 0.21092 2.21401 -0.559822 1.37442 -0.598747 -0.476687 0.283769
199 2 11.1393 24.8726 11.1811 1.98167 0.107791 2.7426 0.197033 0.165692 -0.0446978
200 1 56.2117 16.2433 8.59545 -2.70414 -0.796542 -0.888562 0.170422 1.05553 -0.0861217
201 1 8.5858 56.0505 4.70365 5.58923 0.209288 -1.83867 -0.498455 -0.124924 -0.489484
202 2 4.77629 12.1018 40.4453 -1.67582 -1.60225 0.0415098 -0.288942 0.134322 -0.160504
203 2 57.4978 11.841 33.4428 -0.767734 -0.479726 -0.70724 0.331576 -0.496254 0.162237
204 1 31.4281 40.259 31.2994 -0.474277 -2.5622 2.28095 -0.0830857 -0.178625 0.234924
205 2 20.2622 58.7374 23.8413 1.79452 1.17632 1.289 -0.681974 0.372022 -0.219756
206 2 4.20344 34.6741 3.79289 0.506289 1.32349 0.448102 0.423853 -0.492117 0.187165
207 2 13.3352 51.7024 20.3686 1.27079 -4.45131 -1.91707 0.167269 0.0363664 0.366122
208 2 53.476 33.1522 12.8249 -0.539399 2.69196 -1.96643 0.0664031 -0.427955 0.292934
209 1 19.8982 11.3847 57.2248 -0.126755 -0.104291 1.28145 0.402829 0.0205905 0.306139
210 2 2.79912 2.40139 50.6817 0.746196 -0.314847 -0.923805 -0.625956 0.379544 -0.512251
211 2 34.3022 16.597 18.1657 -0.027795 0.93858 -2.19664 0.698976 -0.343726 0.140194
212 1 57.3622 31.2225 30.7123 -2.05612 0.249922 -1.88615 -0.0447864 0.351304 0.0599821
213 2 26.3787 14.9846 28.5129 -0.0730997 -1.19119 -2.31571 0.446555 -0.471548 -0.32172
214 1 40.7753 42.6558 26.2956 0.532882 2.36197 0.610427 0.147852 -0.210608 -0.212171
215 2 51.8576 20.8999 25.6374 -0.407653 0.568193 2.76244 -0.442493 -0.637883 0.324012
216 2 14.832 49.7016 22.5049 -1.70037 -2.2598 -1.23051 -0.0991625 0.0622234 0.0498782
217 1 38.3578 39.9191 23.5581 1.73239 0.712232 5.46226 -0.103631 0.495596 -0.310749
218 2 55.4542 20.8353 56.4465 1.38303 -0.103615 -1.20041 -0.788635 -0.122596 -0.251342
219 1 49.8252 28.2725 27.5887 1.16749 -2.74043 -0.7012 -0.369046 0.587146 0.356334
220 1 41.0685 24.6043 45.229 -2.08213 -3.34046 2.55619 0.159901 0.077041 0.0613784
221 1 27.6079 49.8903 41.1242 -0.705547 1.15366 -0.260152 -0.507328 -0.103779 -0.274947
222 1 54.0899 34.665 4.85924 1.21052 0.714131 -1.6121 0.105512 0.930287 0.639878
223 1 42.615 42.9574 6.321 -1.21464 3.29974 -0.129998 -1.11864 0.173897 -0.051639
224 1 9.12587 47.1568 4.25285 1.32531 -0.883777 0.724345 -0.086668 -0.162026 0.0162993
225 2 33.7506 24.8782 21.6182 0.828314 0.201056 -1.81003 0.740691 -0.383287 0.584775
226 2 45.4901 7.0266 56.5627 2.1332 0.907437 0.736127 0.0288109 0.547703 0.0291091
227 1 8.47759 8.35463 19.6971 -2.78531 0.139625 1.19143 0.0525084 0.140405 -0.411901
228 2 0.407731 44.6348 50.1424 0.873208 -1.4148 -2.48899 0.358102 0.103768 0.0360915
229 1 18.7746 10.9159 36.4129 -1.10171 0.518701 -0.0132937 -0.100887 0.374762 -0.369938
230 1 48.7021 45.0835 32.7703 0.801669 3.6783 1.31335 -0.341439 0.12112 -0.270817
231 1 54.5112 25.7109 21.7476 -1.75251 1.5101 -0.628645 -0.303367 0.135626 0.421497
232 2 49.1329 0.693337 30.6827 2.27192 -1.23211 -1.03781 -0.29611 0.252977 0.391655
233 2 33.535 56.2083 7.35056 -0.673584 -0.0731402 -1.10119 -0.114306 0.199933 0.128113
234 2 56.0745 54.0371 46.5272 -1.25178 2.18012 -0.19381 0.83508 -0.066971 -0.414024
235 2 54.7934 16.0704 10.8529 0.513015 0.926791 1.44046 0.220798 0.227761 0.0380419
236 2 6.76454 29.3581 33.2317 -0.626772 0.782842 -0.413254 0.389597 0.417007 -0.0285202
237 2 57.2572 14.9375 1.64554 -0.283742 -1.20562 0.306668 -0.237037 0.26398 0.37251
238 2 56.4493 31.4202 43.3458 -0.928798 1.76464 -0.100972 -0.590428 -0.12831 -0.25297
239 1 45.646 16.7619 34.3891 1.99269 -0.743894 -0.338733 0.438061 -0.828644 0.0241434
240 1 45.1772 13.5054 55.7748 0.608651 0.0984257 0.891984 0.358577 0.679343 -0.704092
241 1 52.7868 18.6494 36.5023 -3.05811 -1.04121 1.69327 0.352071 -0.547636 0.394828
242 2 25.8447 26.089 17.4164 -2.18367 -0.774199 -2.82986 0.164956 0.49288 0.8664
243 1 32.7486 25.3476 39.1913 1.0675 1.46735 1.57986 -0.83617 -0.377185 -0.585055
244 1 4.70495 32.6648 45.2517 1.73171 2.96737 1.47558 0.509268 -0.302368 -0.242096
245 1 17.9819 44.4621 42.6879 1.14914 -1.22519 -1.55195 0.168806 -0.348127 -0.332956
246 2 58.5679 22.7011 13.2988 -0.491368 3.58613 1.21823 -0.0423233 -0.478468 0.108028
247 2 11.4996 8.42988 26.0579 2.7766 1.74333 0.614526 -0.0125408 0.256591 -0.23963
248 1 15.4567 11.7492 25.8538 -0.390872 0.387081 1.64764 0.61548 0.69901 -0.4154
249 2 14.0501 21.5636 20.5328 2.93149 0.489053 -0.640959 -0.0136827 -0.442724 0.578751
250 1 47.9912 40.7822 55.3765 2.81509 -1.98254 -0.374196 -0.198065 -0.373203 -0.0756682
251 2 29.6689 31.5608 8.52351 0.372001 1.553 1.89088 -0.111104 0.541856 0.207027
252 1 2.87619 2.43757 32.7261 -3.27301 -1.38623 4.69673 -0.237975 -0.142244 0.234903
253 2 32.41 26.9754 16.7536 1.0236 2.3323 0.664173 -0.59583 0.267859 -0.00604823
254 2 34.9023 34.5829 7.65612 -1.98388 0.956448 0.853049 -0.43391 -0.432984 0.298778
255 2 30.3224 35.5008 59.2372 -3.98041 0.227843 -1.82516 0.24878 0.832898 0.16407
256 2 48.6544 14.7269 14.5538 1.09492 2.76371 1.78361 0.257839 0.14354 -0.0629196
257 2 17.3942 2.17307 43.5338 -1.2236 -1.71264 2.69403 0.241715 0.0252474 0.0725003
258 1 45.8115 3.77435 36.9119 1.63207 -2.76832 3.78248 -0.472649 0.28407 0.781065
259 2 35.7611 31.1641 3.26936 -0.0924138 0.453239 1.60747 0.523207 -0.434716 -0.812948
260 2 3.57267 19.95 57.496 -1.53959 -2.03412 -1.3817 -0.391667 0.0719922 -0.317512
261 1 52.2506 57.9115 14.8405 0.162446 0.136085 -1.08304 -0.143013 0.0379619 0.0909589
262 2 33.6012 23.8545 4.55897 -1.10508 0.683801 0.805189 -0.62279 0.547571 0.183736
263 2 10.1253 10.9562 3.13301 1.36279 -1.80537 1.47068 0.403616 -0.040555 0.0505532
264 2 24.2555 22.8935 51.6084 1.9078 2.55247 -0.279751 -0.116471 -0.0104588 -0.0935828
265 2 16.1858 45.5949 10.9892 1.59701 -0.0128837 -1.30596 0.534584 0.538484 -0.200171
266 2 36.3046 33.377 40.8429 -0.346977 0.931756 2.35544 0.277816 -0.0153463 1.08256
267 2 32.3281 54.3505 19.8659 -1.12549 1.88477 2.51408 0.273962 -0.740811 -0.296358
268 2 7.82688 17.2809 41.8195 -0.213874 -0.983812 -1.64773 0.133586 -0.330095 0.107301
269 1 19.6208 52.1118 16.9408 -1.66941 0.805955 0.810943 -0.222372 0.00698365 0.382622
270 1 51.0316 21.5846 45.6816 1.48615 3.58333 -0.471311 -0.0778472 0.0557935 -0.936434
271 2 6.36663 0.572374 26.5674 3.08554 -0.688149 1.28697 0.625068 -0.203195 0.105986
272 2 19.9442 23.0521 9.82877 1.15652 -1.00395 -1.34917 -0.015489 0.245941 0.101398
273 1 7.7693 27.5631 11.0265 -0.975834 2.46546 -1.1947 0.349205 0.211853 -0.551776
274 2 2.3312 35.8159 6.26869 -0.588656 -0.909905 -1.70834 0.143381 0.22919 -0.0351694
275 1 33.8685 52.8389 38.7168 1.09905 0.299939 4.43643 -0.556052 -0.181668 -0.0781991
276 1 18.3611 31.7849 43.2608 -2.03833 -2.02793 2.06081 -0.445752 0.0985189 0.129877
277 2 34.4801 19.4664 39.6986 1.04114 -0.599788 0.638748 -0.0832256 0.580105 0.504595
278 1 15.545 22.1665 44.4188 -0.221607 0.0502522 2.07643 0.0179826 0.973278 -0.153492
279 2 10.7548 1.23302 53.7927 0.298044 -1.80144 -1.30366 0.0149288 -0.0241734 -0.305615
280 2 2.58234 59.1094 38.8166 -1.83215 0.114632 -1.65554 0.026849 -0.252935 0.148313
281 2 12.0427 29.3234 2.26585 1.24613 -0.212528 0.185486 -0.0582944 0.406303 -0.0802371
282 2 32.1523 2.86248 12.0964 0.813811 0.356308 -0.0814117 -0.34025 0.408394 0.181183
283 1 51.5573 43.2737 2.6976 -2.78867 0.133413 -1.93486 0.43591 -0.236288 -0.300543
284 2 42.8816 20.5545 35.7078 2.32484 0.40934 -1.38051 0.433465 0.152844 -0.243957
285 1 58.5903 21.2272 18.6477 -1.98624 0.767808 -3.01904 1.21995 -0.51408 0.744228
286 1 3.81919 52.1413 47.6181 -0.140022 0.732315 0.696262 -0.559437 -0.0324282 0.246994
287 2 23.8059 0.668649 8.92995 -0.0589254 0.496474 2.90201 -0.0196251 -0.160187 -0.161441
288 2 56.7636 30.5178 35.5884 1.25591 -2.75609 1.70738 0.738705 -0.373624 0.241022
289 2 16.0569 53.8522 31.0161 -0.447814 1.76618 0.970601 0.176077 0.363537 0.403806
290 1 55.8747 13.5177 46.2245 0.462498 -2.84204 4.32688 -0.240583 -0.174934 -0.223145
291 2 52.4596 6.65611 55.57 -0.56472 -0.423564 1.78041 0.198704 -0.0881761 -0.0302079
292 2 38.6815 4.75439 7.84418 1.69984 -0.282873 -0.132929 -0.199371 0.522523 -0.175009
293 2 2.83844 56.0932 39.9312 2.90086 -3.04237 -2.20717 -0.198326 0.21268 -0.0366914
294 2 6.53167 54.9141 31.7224 1.18933 -2.38353 1.07265 0.0988063 0.318435 -0.57502
295 1 3.98099 33.8018 20.8118 1.86383 3.81079 -1.08622 0.015103 -0.383292 0.23323
296 1 41.3147 2.32379 20.5607 2.04901 0.521979 0.0972167 0.479695 0.287616 -0.420826
297 2 52.4627 28.5679 27.4198 -2.23791 2.21988 -1.16937 -0.360431 -0.450438 0.166282
298 2 25.9681 51.1857 43.305 -1.0983 0.884044 -0.182943 0.54138 -0.611762 -0.718614
299 2 46.1218 20.4935 35.0612 -1.20068 2.54657 4.91937 0.0564112 -0.517326 0.565136
300 2 42.4317 47.7487 14.9955 -0.297989 0.184856 2.07354 0.13936 -0.192879 0.0396848
301 1 14.554 47.3414 28.0572 -0.586165 1.68066 1.19899 0.424943 0.0241054 -0.163331
302 1 53.313 13.2524 27.1164 1.68324 -0.085335 3.58549 -0.684995 0.731807 -0.19604
303 2 10.7687 51.3916 9.87569 -1.29759 -2.09985 -1.7667 0.269556 -0.00352018 -0.0757385
304 2 3.54129 8.25479 14.0482 0.985907 -2.08152 -1.37417 0.536255 -0.417469 0.377323
305 1 55.7017 41.0496 8.89368 -1.75371 -0.0492385 -0.165162 0.0963754 0.0512104 -0.122956
306 1 57.5523 17.7763 46.9011 0.312767 1.27732 0.861382 0.737297 0.0501122 0.781626
307 1 8.74103 48.4965 53.6844 1.70158 -3.84712 -0.136224 -0.390067 -0.0180972 -0.293966
308 1 50.6451 39.1814 22.118 1.51958 2.53993 -0.861818 -0.602223 -0.091884 0.426295
309 1 1.46905 27.7741 18.3182 2.13941 3.74142 -3.87813 0.138732 0.225554 -0.13298
310 1 27.9934 40.6344 6.54306 0.691296 -0.493284 1.92341 0.278453 -0.655849 0.16367
311 1 4.27269 56.6391 32.5622 0.64406 -3.02695 -2.9046 -0.0226122 -0.183672 -0.0736744
312 2 5.68454 30.6474 50.6782 -0.158769 -1.29142 -1.29428 -0.380838 -0.342899 -0.714977
313 2 9.78408 36.7047 6.70406 -3.18634 1.4331 -1.91841 -0.371571 -0.142727 -0.189732
314 1 28.196 56.3014 8.56757 1.3456 -2.00645 4.74291 -0.418287 0.417614 -0.131701
315 1 4.58382 52.8224 15.6283 0.49859 -0.585743 0.801164 0.11551 -0.00293518 -0.00221077
316 1 6.72287 3.28326 37.465 -0.611229 -0.675525 -0.324941 0.180964 0.25964 -0.470891
317 2 29.9982 49.3849 9.40984 1.50968 0.536036 -2.25847 0.144844 -0.787976 -0.492476
318 2 58.5649 50.2705 9.05671 -0.28062 -2.17773 1.393 -0.27304 0.72436 -0.581874
319 2 47.4878 5.43524 13.2539 2.21916 -2.03857 1.32698 0.551388 -0.222347 0.0150689
320 1 8.34871 53.5775 5.36138 -0.603045 -5.20155 2.18653 0.303722 0.21545 0.426406
321 2 23.1257 57.0399 47.4923 2.26485 -0.59065 0.57758 0.323486 -0.772577 -0.0820858
322 1 10.3552 31.4136 53.1827 -0.360104 -0.66032 1.67013 -0.224172 0.117064 0.510581
323 1 38.6515 34.3464 13.9819 2.10897 -2.16373 -2.56227 -0.105901 -0.462653 0.369652
324 2 57.4741 13.2215 4.92108 1.39204 0.472135 -2.25958 0.401333 0.214788 -0.264728
325 1 17.7226 3.95823 48.9164 0.0973966 -1.4258 0.85919 0.0821729 -0.0824405 0.1782
326 2 26.7976 2.40757 57.3931 -1.0927 0.733148 -1.36993 -0.0370018 -0.0515444 -0.133116
327 2 27.032 40.8678 21.9262 -1.92371 -1.05488 -1.92365 -0.0198736 0.362166 0.0628092
328 2 32.7535 31.9251 31.605 1.08259 4.31414 1.19849 0.0942798 -0.26001 0.180336
329 2 39.5373 3.99358 50.7065 -3.31935 -1.15598 0.575734 -0.353665 -0.0782556 0.258919
330 2 48.7662 52.6663 7.05542 -0.52935 -2.16103 0.658328 -0.386054 0.151791 0.170076
331 2 36.3138 16.4895 24.4467 0.273099 1.57594 2.41875 0.718484 1.17391 -0.666076
332 2 2.46109 17.9394 34.0965 -0.874095 1.52409 1.13692 0.16466 -0.118107 -0.430476
333 2 47.9522 2.74977 11.4305 -1.0692 0.112232 3.19203 -0.386778 0.138753 -0.348707
334 1 55.6968 12.7894 2.35507 3.43569 -1.41529 -2.3659 -0.135332 -0.178913 -0.111799
335 2 33.0866 55.646 50.3711 -0.723684 -1.04233 -1.58774 0.189051 0.212205 0.419371
336 2 17.8801 13.0836 34.806 1.44724 -0.866725 0.186572 0.00849269 0.343116 -0.168237
337 1 8.68972 4.09994 4.02984 2.51502 3.18784 -0.061114 0.523918 -0.0432693 0.384117
338 1 11.2192 46.1152 28.2874 3.02122 0.622782 0.0356272 0.384347 0.45154 -0.0497082
339 2 11.7422 24.4778 51.9441 1.98526 -0.0104989 -0.0170261 0.512084 0.171247 0.540884
340 1 30.4271 42.4457 57.2006 2.4085 -0.239033 1.13901 0.481192 0.0503843 0.341753
341 2 57.8257 32.259 53.675 -0.199906 -0.945513 0.880332 0.0294277 0.288935 0.0418415
342 1 20.4036 29.2275 0.0968683 -0.671955 1.8334 1.51073 0.364423 -0.253879 -0.128201
343 1 54.1444 18.7643 57.1439 -0.731952 -0.273809 0.169774 0.168951 -0.193698 0.0817649
344 1 20.3103 25.1853 58.3493 3.49406 -1.32264 -0.0379916 -0.372439 -0.577249 0.0921029
345 1 44.3008 32.1683 23.5674 1.29864 -2.60044 3.50509 -0.323569 0.31236 0.333843
346 1 50.6859 2.99046 30.748 -1.39427 2.92997 -0.419523 -0.0770303 0.0787637 -0.0205804
347 2 53.6337 43.1521 0.383936 -2.40469 0.0591847 0.368109 -0.473863 -0.0563538 -0.264382