ITEM: TIMESTEP
22000002
ITEM: NUMBER OF ATOMS
11664
ITEM: BOX BOUNDS pp pp pp
-0.0147677 59.4148
-0.0147677 59.4148
-0.0147677 59.4148
ITEM: ATOMS id type x y z vx vy vz fx fy fz
1 1 33.5985 8.92841 26.3257 -0.925535 -1.16144 0.922249 -0.620473 -0.322383 0.364291
2 2 36.4892 38.4933 24.8724 -1.96569 1.14089 -0.402209 -0.257919 0.0317997 -0.102671
3 1 23.8808 5.07398 59.4134 -2.20091 0.201882 0.950217 -0.532841 0.29959 0.0925217
4 1 9.74467 54.0091 21.9976 -0.316648 -0.475805 2.14882 0.72005 0.656771 -0.0717152
5 1 15.1646 7.92148 13.0655 0.380167 3.32223 -1.08241 0.389552 0.0258914 -1.17233
6 2 35.9627 39.0524 0.454821 -1.81517 -0.342425 -1.11339 -0.297827 -0.126526 -0.122971
7 1 20.1501 1.89121 13.8271 1.08094 0.0175461 -1.79115 -0.162563 0.461927 -0.0703973
8 1 19.0382 28.8145 20.6847 2.40181 -0.336573 -3.76104 0.254748 0.487992 0.242057
9 2 43.7649 59.1739 9.90953 1.30462 0.688275 2.30362 -0.0647841 0.389749 0.0124243
10 2 54.9782 11.7395 9.56533 1.30503 -1.34784 0.629192 -0.312414 -0.452138 0.257007
11 2 33.8393 26.7988 19.5465 -2.89019 0.966023 -1.23346 -0.226733 0.14454 -0.100294
12 2 22.9541 55.2943 16.1085 -0.726901 -1.10877 0.659975 -0.656905 -0.289328 -0.201287
13 2 15.9668 22.4997 18.2948 0.214604 3.14246 1.87398 0.162551 -0.447438 -0.0217088
14 2 20.2369 5.41099 7.57925 0.787399 -0.957945 0.932971 -0.177361 -0.329046 0.0472083
15 2 52.6217 6.67646 36.6873 0.834548 -0.321475 -0.827273 0.938794 -0.392072 -0.0720086
16 1 39.6813 42.6009 53.4294 -0.514703 -1.94843 2.3119 -0.503514 0.257937 -0.076914
17 1 27.0419 23.0969 23.7084 0.0526646 0.465939 -1.63177 0.34729 -0.0206783 0.0270393
18 1 0.673322 46.1342 47.0549 0.414393 2.59146 -0.149335 0.732664 -0.558582 -0.19579
19 2 33.4664 10.9908 46.2361 0.700969 -0.0551267 3.71576 0.154315 0.438729 -0.476506
20 2 1.57894 30.447 55.2993 0.836151 1.75675 2.73271 -0.0561585 0.156203 0.315227
21 2 3.99784 23.2359 45.2597 -1.57711 -2.77478 -1.09587 0.448086 -0.758426 -0.142383
22 1 22.6839 5.16836 14.9755 1.92086 -1.98185 -1.56243 0.382546 0.159249 -0.359849
23 1 51.946 3.00191 28.405 -6.53536 -0.905153 4.26005 0.0462872 -0.121444 -0.138648
24 2 22.5024 5.84008 11.3943 0.83309 -0.843515 1.371 -0.352282 -0.212736 -0.260924
25 1 58.988 12.0779 25.3799 -2.40303 -1.52633 -0.220232 5.08445e-04 -0.298688 -0.210519
26 1 39.0409 16.7237 22.6358 -0.72398 -1.01052 1.09634 0.0923017 0.366119 0.423172
27 2 56.4451 47.86 16.6115 -0.213029 1.63522 -0.142038 -0.532896 -0.513036 -0.350403
28 2 31.5444 14.6356 25.104 2.76317 -1.76768 -1.72003 -0.512334 -0.0807001 -0.221316
29 2 35.5791 58.1459 50.0909 0.887362 -1.10868 -0.688142 0.183358 -0.87699 -0.52666
30 1 39.5443 24.8048 23.3456 1.34297 -0.80131 -0.0863599 -0.108076 -0.121477 0.342002
31 2 56.4126 24.9078 12.3607 0.280007 0.340072 -1.3735 -0.893085 -0.00587831 -0.0944693
32 2 10.8278 32.2641 3.65666 0.664505 0.679173 0.56619 -1.0313 -0.555467 -0.690867
33 2 36.7511 13.3899 41.0053 -1.63407 1.01864 0.371704 -0.204782 0.523478 -0.461107
34 1 23.2474 53.0773 32.1505 -0.0982905 -3.66034 -1.04889 -0.242919 0.540078 0.457913
35 1 55.7955 15.5246 31.1952 -1.47283 0.863332 1.70818 0.663891 -0.254781 0.108185
36 2 48.5412 49.7476 31.7012 2.95779 1.20695 -0.0920752 0.3798 0.369142 -0.0146308
37 1 33.0106 17.3988 31.7277 -0.465288 -1.1365 0.753953 -0.0744146 -0.182122 -0.0197868
38 2 44.5699 15.1979 11.2312 1.66941 -1.61669 -0.352008 0.202419 -0.0636747 0.0397137
39 1 53.8281 55.1167 18.4369 0.797374 4.62635 -1.54388 -0.717412 -0.295576 -0.244134
40 1 29.3713 54.8647 24.9768 0.228393 -0.707261 0.326882 0.692863 0.147636 0.567413
41 2 50.6685 51.9089 55.0874 3.10933 -1.02533 1.49118 0.0220022 0.0435896 0.27115
42 1 44.3759 2.94895 53.8726 -1.27613 -0.302193 -0.504261 -0.0773216 -0.19751 -0.275871
43 1 5.23877 11.4718 45.4989 1.40087 1.19881 -1.3674 0.268629 -0.253534 -0.0339211
44 2 42.2066 38.815 33.5392 2.07018 -1.48096 -1.8592 -0.0353395 0.128491 0.936608
45 2 44.767 37.9375 31.9625 -0.361478 -0.698816 -0.721986 -0.435203 0.073427 0.0557279
46 1 41.4544 58.1438 55.7789 -0.127441 -2.5045 -0.37628 -0.382893 0.115622 0.163482
47 1 48.2572 12.6058 24.3694 1.22834 1.16698 1.03751 0.288765 -0.0435417 0.163389
48 2 40.156 46.3351 38.5975 -2.27556 -0.594223 -3.50395 0.819764 -0.642294 -0.0762934
49 1 27.6652 51.9686 45.1972 -4.52097 0.594915 0.00529032 -0.0445288 0.284501 -0.424259
50 2 19.3721 47.7323 56.5769 -0.242421 -1.80725 -0.482039 0.107141 0.478427 -0.198043
51 1 15.5317 2.65746 45.5917 -0.284017 -0.259393 -1.13416 0.240705 0.245001 0.213443
52 1 18.7155 45.6361 49.2208 -1.35746 -0.568418 2.06762 0.201777 -0.23177 -0.286593
53 1 10.688 27.6097 6.65537 1.29269 0.324093 1.40973 -0.0399922 -0.243496 -0.0410574
54 1 32.7649 12.8848 52.9546 -0.22516 3.05287 -0.276365 0.267271 -0.594406 0.427049
55 2 52.1637 25.5469 29.3484 -0.282861 1.20945 2.11249 -0.396984 -0.134224 0.311559
56 2 22.1326 59.2621 56.3883 0.673815 1.49915 2.13653 -0.315761 -0.0179323 -0.0300721
57 1 45.6542 21.4933 43.827 4.33553 0.129789 1.98572 -0.409469 0.19539 0.164254
58 2 37.5057 54.0939 55.4625 1.25492 1.06481 -1.84735 0.696384 -0.365595 1.0969
59 1 20.2234 4.26599 2.69536 -0.578737 -0.189104 0.467076 0.348815 -0.20333 0.0887323
60 2 10.6065 9.36538 17.8176 -1.75093 0.408979 -0.689546 -0.0904611 0.462195 -0.310391
61 1 24.3705 39.6639 22.3595 2.08378 -1.02642 -4.05653 -0.0997751 0.115431 0.0364684
62 2 57.626 26.6497 1.29492 -0.243404 0.676374 2.42934 -0.0800883 0.0333797 -0.0859844
63 2 50.1626 22.8637 40.8968 -3.23338 -0.526068 3.37804 -0.404654 -0.207873 -0.191964
64 2 5.65939 32.2701 29.8459 2.34658 0.443578 2.29905 -0.200532 -0.0894846 0.141994
65 1 27.5411 15.0943 13.5327 0.694088 -2.60235 1.19728 -0.492613 -0.0820496 0.471081
66 1 37.5267 25.3806 31.2373 1.71314 5.09918 -0.127464 -0.611625 -0.5302 -0.249829
67 1 36.0185 34.7662 52.6262 -4.93406 1.2095 -0.508792 -0.318863 0.306265 0.357765
68 2 43.8708 46.0501 57.8284 0.334752 0.795761 2.36343 -0.587356 -0.453198 -0.121844
69 2 23.5844 55.7416 30.5106 0.955828 -0.716407 -3.2729 0.297186 0.658886 -0.908074
70 2 16.3086 17.4073 18.0665 1.79511 -1.76829 0.0991801 0.867176 -0.752877 -0.0229674
71 1 20.3782 4.61988 10.1685 -1.60093 0.0838307 1.2125 -0.632205 0.0694464 -0.225455
72 2 5.01242 42.5824 12.0842 1.14398 0.465669 2.06046 -3.49289e-04 0.0491575 -0.289175
73 2 42.9929 12.686 50.3398 0.441214 -1.60221 -0.59744 0.394973 0.0148625 0.188813
74 2 26.73 22.0509 50.011 -0.638181 -1.27853 1.30591 -0.183365 -0.174768 0.266885
75 2 29.7307 57.5614 31.7971 1.20985 -0.247208 1.3113 -0.437198 -0.941084 0.074302
76 2 19.814 55.2497 56.3912 -4.04785 -2.27815 -0.579684 0.700034 0.955053 0.644559
77 2 12.9978 22.3511 27.8626 0.557849 2.82327 -2.22995 0.164594 0.432375 -0.00909799
78 1 3.4265 19.758 19.6133 1.24942 -0.733341 -5.14104 -0.196823 -0.689154 -0.147627
79 2 51.9738 10.9542 29.6046 -0.142573 -1.72352 -2.87824 -0.80572 -0.280901 0.67205
80 1 10.6337 20.3258 23.8766 -3.18696 -1.30722 0.929168 0.0412894 -0.481021 0.0929566
81 2 5.09086 45.7526 27.0204 -0.136506 2.44162 0.0729658 -0.584564 -0.44092 -0.0459659
82 2 31.8361 17.3849 56.0831 -2.27277 -0.00471771 1.56183 0.327006 0.106358 0.175268
83 2 7.09121 39.4922 31.69 -2.73503 -1.04868 -1.22676 -0.143409 -0.591734 0.400676
84 2 45.2835 27.9289 45.9308 1.95002 -1.9778 0.839181 0.0609957 -0.34168 0.727748
85 2 54.3066 12.5814 52.6075 0.317019 -1.44256 -0.226984 -0.469995 0.439014 0.0839512
86 2 6.95619 10.9301 3.53072 0.132745 -0.00274252 4.87894 0.290856 -0.587595 0.281005
87 1 12.0789 11.8737 22.2117 1.84611 -0.696128 0.628241 -0.250027 0.224385 0.143518
88 2 22.0968 59.1103 34.1055 -1.71234 -0.0946026 3.88127 -0.5076 0.021506 -0.773305
89 1 28.2541 12.742 46.3689 0.176595 0.670833 -2.11561 0.717898 0.0672512 -0.630484
90 2 35.2301 55.8848 4.48389 -0.535449 -0.957311 -1.81711 -0.0407462 -0.0529231 0.212203
91 2 3.8218 49.327 21.7281 -1.19388 -1.23108 0.837728 -0.85083 -0.326698 0.362328
92 1 42.3813 7.42805 8.49665 0.329715 1.64048 -3.23981 -0.202037 0.397867 -0.628433
93 2 6.29191 46.754 18.5294 -1.23383 0.13854 -1.50999 -0.612868 0.0726298 0.353935
94 2 6.31056 26.2466 37.4027 2.62952 0.179706 1.95094 0.0734326 -0.160873 -0.0154192
95 1 26.192 42.5103 52.505 -3.72893 -2.25255 -1.35888 0.306098 -0.283975 -0.0944571
96 1 7.94762 36.5273 27.816 -3.04317 -0.148398 -2.08483 0.432039 -0.975835 -1.3947
97 1 0.335446 2.41342 58.1 -0.918679 1.34343 -0.440381 -0.520691 0.164775 0.0535552
98 1 18.4999 33.11 1.48238 -2.09536 2.24807 -4.23123 -0.0125922 -0.0517441 -0.0504211
99 1 53.7762 1.9065 51.9462 1.87701 2.35913 -2.819 -0.00903319 -0.291839 -0.0296384
100 1 12.2099 40.5042 57.1816 1.03275 -2.90335 1.4692 -0.124166 -0.0912073 0.290228
101 2 5.49625 44.6014 40.3399 2.3355 1.61389 3.65893 -0.228147 -0.248423 0.371122
102 1 18.5926 6.5381 49.5492 -1.0395 -0.161429 -3.9679 0.520566 -0.536524 0.262132
103 2 40.6893 31.0533 34.7383 1.42922 -0.589813 -0.848335 -0.00906299 0.160097 0.593047
104 1 47.6877 24.1072 20.0647 -1.83902 -1.61579 6.75457 0.162183 0.0205577 0.360882
105 2 33.0318 39.9239 20.4066 1.79107 2.13325 -1.77207 -0.0502487 -1.2567 -0.108554
106 1 30.7315 0.356051 2.16638 2.3108 1.70274 3.07435 0.533533 0.414305 -0.0664155
107 2 56.6818 16.8556 26.5474 -1.52414 0.757562 2.2618 0.561708 0.243381 -0.151967
108 1 5.61744 27.9207 27.6603 1.50523 -0.473092 -1.17066 -0.306887 -0.379635 0.357737
109 2 32.1489 20.2667 22.4308 1.06177 -0.622216 -0.0643379 -0.162187 -0.775007 0.138026
110 2 37.5848 0.27947 30.3499 0.0695443 0.730921 -0.811887 0.159152 0.320689 -0.196996
111 2 8.7305 55.6215 24.1347 -0.228858 1.92964 -1.88751 0.326693 -0.0164707 -0.424435
112 2 54.5059 30.6131 20.3243 -0.435058 1.08395 -0.413871 0.385878 0.0471177 0.51093
113 1 20.4577 15.5813 52.4977 -0.732525 1.53375 2.24993 -0.517575 -0.054134 -0.0641128
114 1 14.6987 13.044 31.129 -1.95277 -0.234915 -2.70238 0.0875813 -0.355065 -0.458809
115 1 46.3309 47.5221 57.9978 3.68405 -6.15039 0.891772 0.0247841 0.0683841 -0.03055
116 1 45.1616 42.9013 22.0642 -1.21023 -0.759172 -0.901707 -0.498311 -0.529337 0.44374
117 1 23.6728 27.6767 31.8075 1.68398 -1.08841 1.11117 0.00193926 -0.142219 -0.141328
118 2 1.988 47.1982 56.7586 -0.841557 -0.43465 -0.828977 0.389837 0.372301 -0.471172
119 1 52.4221 57.4416 39.5858 1.58975 -2.12106 -1.47818 0.213345 0.190818 0.866908
120 1 41.4966 0.228918 52.0683 -1.41716 0.803933 -1.66491 0.594172 -0.211956 0.860427
121 1 24.0046 41.1824 38.0296 2.24686 1.10658 -2.52054 -0.379379 0.180766 -0.540785
122 2 53.5887 36.2155 33.473 -0.940262 -0.909686 0.438551 -0.0575642 0.192087 0.37444
123 1 2.86564 12.4684 42.1443 -0.414641 2.25341 -1.09428 -0.228144 0.308806 -0.209236
124 2 39.3292 26.4511 46.8529 -0.21461 1.79064 -2.07766 0.013979 0.147632 0.397316
125 1 51.0005 14.3169 40.9577 -0.961821 0.476877 -2.81739 -0.33819 -0.167767 -0.0498073
126 2 43.482 39.28 36.4252 0.658846 2.68545 1.45459 -0.405641 0.707694 0.24658
127 1 7.47345 40.9026 36.6838 -4.27245 3.71385 -1.15701 0.0626765 0.0422669 0.00160151
128 1 11.8043 15.974 22.5151 -1.22997 2.47637 -0.130895 0.194153 0.34836 0.11098
129 2 18.1738 3.05417 7.48232 -2.58578 1.06893 -0.917773 -0.549496 0.259325 -0.385786
130 2 55.7409 16.4015 48.2712 -4.50873 0.614006 -2.91471 -0.346336 -0.501911 0.323911
131 2 20.518 37.45 41.118 -1.12141 2.04391 0.258688 0.34507 0.14868 0.236821
132 2 34.5111 8.52962 9.26068 -0.554456 1.93613 2.327 0.17527 0.440951 -0.472242
133 2 46.2181 21.384 38.1932 1.56548 0.37352 -0.347834 -0.0227396 0.296492 -0.246068
134 2 58.6574 48.9944 18.2217 1.3612 2.03477 1.26035 0.516863 0.758287 0.171268
135 2 16.4784 54.1363 15.9924 1.08697 3.28905 1.13476 0.391249 -0.153958 0.41874
136 1 53.052 17.8846 14.7217 -0.107222 -1.58005 -1.21892 -0.176145 0.0199841 0.412015
137 2 5.09016 44.9271 2.32205 -1.40578 -1.198 -1.06898 0.443557 0.0307119 -0.375742
138 2 42.8444 20.8766 18.1704 0.00389217 -2.71753 1.89112 0.774491 -0.151533 0.226982
139 1 10.9922 24.1566 42.2747 -2.13274 1.09838 1.19077 -0.242012 -0.455177 -0.0115897
140 1 3.58632 8.06466 50.8181 -2.70348 -1.7336 -1.68438 -0.576269 0.0872316 -0.349433
141 1 39.0516 42.5884 10.5402 -0.484039 1.40399 1.11192 0.59817 0.782217 0.245016
142 1 16.6645 31.281 38.1801 0.00189656 0.977149 3.92336 -0.11113 0.138443 -0.294341
143 1 56.045 19.5284 1.74935 -1.06388 1.10612 -1.36801 0.537255 -0.137608 0.408347
144 1 45.0548 8.73082 1.95687 -2.51109 1.68794 0.972855 0.206106 -0.499725 0.287537
145 2 16.3383 27.1802 41.7418 0.776928 2.13214 -1.9829 -0.0809154 0.218042 -0.323272
146 2 48.0639 25.1076 41.7297 0.81744 0.612477 -2.5861 0.370741 -0.40848 -0.105214
147 1 36.3278 43.1123 50.0305 0.896891 -3.86529 -1.52119 0.658392 0.131413 -0.199245
148 2 49.5979 49.7535 20.3333 0.786862 1.85379 1.65607 -0.773282 0.471395 -0.409498
149 2 28.2687 48.3155 57.0213 -0.679041 -1.98048 -0.78115 0.0628135 -0.146473 -0.20177
150 1 40.9649 12.3838 17.0802 0.12938 -0.482309 -2.2005 -0.229496 -0.0829133 -0.207981
151 2 1.09554 30.426 42.1848 -0.972724 2.02151 0.62754 0.48608 -0.383863 -0.285124
152 2 45.0597 29.5331 32.4742 -0.411781 0.968344 1.86461 -0.18897 0.0770856 -0.351788
153 2 2.09151 59.4049 3.27543 2.65293 0.60739 0.917528 0.252112 0.15976 0.620446
154 1 33.7696 6.62476 40.3764 -1.07528 -3.3213 -2.4573 0.378757 0.437545 0.181917
155 2 4.57086 56.8222 18.3468 0.411543 0.207853 -0.00909893 -0.50602 -0.0428643 0.289852
156 2 5.58541 6.54944 55.9774 -0.340907 -0.637961 -0.890417 -0.128311 0.548503 1.83801
157 2 51.3458 43.2667 37.6257 3.53063 -1.18853 0.826442 0.0932107 0.405025 0.286018
158 1 26.9369 9.42266 24.6019 -1.55766 -1.66555 -0.359541 0.373928 0.297258 -0.513564
159 2 50.0566 19.8715 56.7626 -2.52933 0.240528 -1.2483 -0.014612 0.521649 -0.568262
160 2 19.679 55.3089 53.3914 -1.1558 -1.56886 -1.426 0.707296 -0.0931219 -0.272201
161 2 2.39902 25.4274 52.4107 -1.46247 -1.4311 -0.687537 -0.224611 -0.349311 -0.137648
162 1 8.74982 16.2227 27.1916 -2.37952 -3.462 -4.04566 -0.169692 -0.473249 -0.270732
163 2 5.18765 32.0999 1.4687 1.07212 -0.776191 0.397255 0.149614 -0.466539 0.194023
164 1 28.4238 40.5648 4.0477 2.71131 0.200489 0.992147 -0.606724 -0.105238 0.263664
165 1 29.9812 50.4473 25.899 2.13943 1.59761 3.24146 0.446986 -0.188931 0.235622
166 1 21.2581 45.5412 57.3723 -0.222389 2.20362 2.96181 -0.430366 0.0699373 -0.138626
167 1 20.789 9.7636 8.79999 2.62684 2.75408 -0.0132604 -0.538875 -0.112306 -0.88528
168 1 54.9783 5.98131 2.45339 -1.60241 0.838332 -1.23889 0.190654 -0.255692 0.0704061
169 2 8.20617 6.29953 5.76188 -0.362668 1.2564 1.16145 0.147122 -0.154782 -0.142839
170 1 25.8498 30.9354 23.0339 0.119395 -2.30711 0.902092 0.285477 0.0404856 0.394498
171 1 53.2836 4.08084 16.9098 -0.891457 -0.765304 1.91633 0.026967 0.0997848 -0.584476
172 1 10.352 37.4011 4.02521 -0.798357 1.21639 -1.5771 0.222644 -0.241547 -0.0364666
173 2 47.1502 26.9823 27.5726 -0.764054 1.80789 1.69535 0.233186 -0.731676 0.233017
174 1 14.4192 14.3852 14.9732 -3.10294 0.486435 -3.3646 0.541036 0.0963432 0.283394
175 2 25.0564 14.4716 18.5544 1.27885 -3.31641 -0.643838 -0.719052 -0.334867 -0.453888
176 2 7.97417 28.9317 50.2445 1.18939 0.434856 -1.04501 0.127197 0.104443 -0.0838716
177 1 49.5207 4.58897 45.7301 1.37079 -1.6184 -1.03719 -0.2044 0.00193597 0.792568
178 2 32.6108 51.5996 6.99257 -0.432246 0.90041 -3.26718 0.229839 -0.288103 -1.0346
179 1 58.4273 9.47079 12.8959 4.29991 2.38344 -0.504226 -0.0987333 0.239272 -0.128194
180 2 51.2015 53.7654 1.27373 0.297774 -0.623419 -0.373033 0.283278 -0.309446 0.0510891
181 2 9.59787 30.675 13.6761 -0.327009 -0.157469 -1.21227 0.34121 -0.00223166 0.105511
182 1 38.4636 50.8998 9.74665 1.27129 -1.01155 0.398762 -0.152785 0.410147 0.0816342
183 2 2.01524 40.8461 3.06308 -1.91179 -2.43394 0.584965 -0.0950412 0.591307 0.0738703
184 2 13.7043 21.9487 56.7936 1.20089 -0.159339 -2.12648 0.0847087 0.437843 -0.383719
185 1 26.8206 11.3513 35.4333 2.49798 0.257647 1.64698 -0.454116 -0.036166 0.37626
186 2 52.0031 2.57527 47.3184 2.02158 1.23976 -1.13091 0.318082 0.311322 -0.671006
187 1 43.6157 22.0953 45.5167 2.72661 -1.2348 0.874847 0.314207 0.0042322 -0.211234
188 1 31.0412 9.4876 3.90305 0.592392 0.375003 -3.86616 0.304215 -0.141845 0.181424
189 2 25.7563 17.7812 52.6061 0.426142 -2.47678 0.0792758 0.211202 0.0629443 0.176417
190 2 13.3231 41.0381 11.7528 -3.31485 1.82706 0.304634 0.292886 -0.43948 -0.0558282
191 1 28.0641 46.6163 50.6571 -0.862086 -2.52407 0.134178 -0.266169 -0.18035 0.0837817
192 2 1.09438 10.4117 15.2553 2.22655 1.9478 -2.06267 0.868474 -0.368649 0.599471
193 1 57.1902 42.1001 33.2996 2.55885 -1.19515 -0.193441 0.524701 -0.375856 0.472805
194 1 11.4933 50.1873 18.9881 0.880412 -3.29713 0.392123 0.0131129 0.603288 0.436339
195 1 51.8171 28.187 42.4629 2.10033 -2.70501 -2.23791 -0.548436 -0.266448 -0.160255
196 1 16.06 56.0964 29.493 -0.361137 -2.25026 -1.5535 1.05565 0.434283 1.23999
197 2 32.1684 0.522963 59.1385 -0.129445 0.275069 0.226834 0.405868 -0.217476 0.411362
198 2 31.3581 51.7583 0.209054 2.33648 -0.458317 1.31177 -0.576492 -0.479101 0.298245
199 2 11.1359 24.8726 11.1762 1.93678 0.0714029 2.74714 0.212453 0.177658 -0.0192227
200 1 56.2164 16.2456 8.59779 -2.74938 -1.10913 -0.856422 0.142101 1.00827 -0.120905
201 1 8.57506 56.0493 4.70787 5.72493 0.24094 -1.68705 -0.425427 -0.0847403 -0.499737
202 2 4.78027 12.1056 40.4449 -1.61084 -1.62631 0.0752507 -0.312904 0.1055 -0.15895
203 2 57.4987 11.8423 33.4441 -0.836338 -0.375219 -0.740715 0.323185 -0.488546 0.159795
204 1 31.429 40.2637 31.2949 -0.447215 -2.50455 2.20618 -0.0926922 -0.187559 0.245507
205 2 20.2587 58.7343 23.8389 1.93348 1.09646 1.33249 -0.646157 0.374279 -0.201409
206 2 4.20322 34.6712 3.79276 0.417055 1.42576 0.408314 0.416288 -0.485286 0.185738
207 2 13.3332 51.7107 20.3728 1.23015 -4.45294 -1.98951 0.207417 0.0130867 0.333763
208 2 53.4764 33.1466 12.8294 -0.550662 2.77837 -2.0237 0.0442483 -0.40996 0.263832
209 1 19.8988 11.3854 57.2215 -0.248521 -0.111233 1.18899 0.400129 0.0257067 0.296168
210 2 2.79824 2.40286 50.6829 0.875975 -0.394483 -0.812382 -0.607258 0.376096 -0.534574
211 2 34.3023 16.5954 18.1704 -0.174704 1.00989 -2.22237 0.69077 -0.337913 0.119938
212 1 57.3655 31.222 30.716 -2.03858 0.142529 -1.90043 -0.0597825 0.354944 0.0441547
213 2 26.379 14.9873 28.5175 -0.168024 -1.08722 -2.24066 0.45184 -0.502725 -0.370425
214 1 40.774 42.6507 26.2944 0.486543 2.41911 0.67183 0.154621 -0.178471 -0.195653
215 2 51.8577 20.8989 25.632 -0.319275 0.700376 2.68704 -0.390307 -0.616711 0.367992
216 2 14.8358 49.7056 22.5075 -1.67525 -2.26852 -1.23565 -0.12546 0.0375264 0.00815403
217 1 38.3541 39.9176 23.5472 1.76154 0.558063 5.5424 -0.0976671 0.516379 -0.246414
218 2 55.4506 20.8358 56.4481 1.5465 -0.079576 -1.14432 -0.768079 -0.103979 -0.270034
219 1 49.8222 28.2782 27.5903 1.27525 -2.91092 -0.807606 -0.347178 0.550771 0.34848
220 1 41.0724 24.6111 45.2234 -2.13038 -3.35492 2.52734 0.169142 0.0360307 0.115054
221 1 27.6093 49.8874 41.1243 -0.550501 1.18111 -0.174643 -0.510465 -0.0832509 -0.287061
222 1 54.0869 34.6637 4.86335 1.1761 0.43024 -1.80165 0.114861 0.936375 0.617602
223 1 42.6168 42.9505 6.3219 -0.875996 3.23706 -0.112387 -1.10613 0.221478 -0.0637022
224 1 9.12377 47.1581 4.25211 1.3485 -0.834151 0.716324 -0.0731924 -0.160231 0.0326849
225 2 33.749 24.8779 21.6222 0.668018 0.283125 -1.93075 0.769121 -0.394489 0.570923
226 2 45.4854 7.02553 56.5605 2.12089 0.787481 0.72916 0.0713156 0.57995 0.0311542
227 1 8.48377 8.35499 19.6948 -2.79621 0.098847 1.31311 0.034154 0.127526 -0.396184
228 2 0.406877 44.6372 50.1468 0.796442 -1.4336 -2.49046 0.361303 0.0848915 -0.0031385
229 1 18.7771 10.9155 36.4127 -1.06526 0.400333 0.0968605 -0.133382 0.402359 -0.355763
230 1 48.6999 45.0757 32.7675 0.905342 3.6338 1.39281 -0.345904 0.152528 -0.259717
231 1 54.5139 25.708 21.7492 -1.66064 1.46736 -0.753385 -0.292621 0.137915 0.403724
232 2 49.1277 0.696662 30.6849 2.32858 -1.28207 -1.11821 -0.257263 0.229072 0.376733
233 2 33.5362 56.2078 7.35341 -0.647488 -0.114715 -1.12605 -0.127371 0.193864 0.115377
234 2 56.0765 54.032 46.527 -1.42773 2.19171 -0.105233 0.838704 -0.05935 -0.422294
235 2 54.7917 16.0689 10.8505 0.464913 0.877785 1.42814 0.230247 0.228667 0.0674218
236 2 6.76651 29.3567 33.2324 -0.709494 0.693612 -0.407463 0.397627 0.420981 -0.0230929
237 2 57.2569 14.9404 1.64578 -0.23355 -1.25789 0.226897 -0.235532 0.23966 0.379644
238 2 56.4503 31.4166 43.3455 -0.802527 1.78658 -0.0471587 -0.596789 -0.0926677 -0.25525
239 1 45.6418 16.7635 34.3896 1.85299 -0.490244 -0.347503 0.471768 -0.838606 0.0354467
240 1 45.1756 13.5058 55.7721 0.496657 -0.104682 1.10588 0.376077 0.658348 -0.709963
241 1 52.7923 18.6517 36.4989 -3.15998 -0.877065 1.57143 0.33543 -0.528324 0.398911
242 2 25.8492 26.0908 17.4226 -2.2152 -0.878262 -3.00846 0.149948 0.497318 0.844549
243 1 32.7462 25.3447 39.1877 1.31684 1.57666 1.75244 -0.812335 -0.350833 -0.560488
244 1 4.70234 32.6587 45.2482 1.57168 3.05066 1.54817 0.53589 -0.262194 -0.244031
245 1 17.98 44.4641 42.6905 1.09458 -1.11614 -1.44641 0.184567 -0.363826 -0.354155
246 2 58.5681 22.694 13.2969 -0.482851 3.67873 1.18977 -0.0344799 -0.424903 0.151855
247 2 11.4946 8.42704 26.0567 2.77696 1.68331 0.666154 -0.0121133 0.297763 -0.253398
248 1 15.4581 11.7492 25.8505 -0.581487 0.172407 1.7703 0.642509 0.713347 -0.40154
249 2 14.0447 21.5628 20.5345 2.92786 0.579317 -0.762047 0.0255367 -0.414774 0.571456
250 1 47.985 40.7858 55.3765 2.86837 -1.86657 -0.349453 -0.167957 -0.380331 -0.0853603
251 2 29.6681 31.5578 8.52036 0.391356 1.43569 1.84122 -0.0748051 0.555842 0.248284
252 1 2.88341 2.44106 32.7167 -3.19187 -1.33959 4.61361 -0.279202 -0.157677 0.287725
253 2 32.4078 26.9709 16.7527 1.14762 2.26922 0.663926 -0.585068 0.310886 0.00330006
254 2 34.906 34.5807 7.6551 -1.8882 1.04503 0.787799 -0.455885 -0.412194 0.311867
255 2 30.3304 35.5004 59.24 -4.02637 0.0517436 -1.85692 0.216378 0.830983 0.150295
256 2 48.6518 14.7218 14.5507 1.04009 2.72863 1.79436 0.252393 0.167092 -0.0523672
257 2 17.397 2.17727 43.528 -1.27321 -1.71709 2.67312 0.236928 0.0299333 0.104684
258 1 45.8076 3.7807 36.9044 1.77184 -2.85037 3.53813 -0.456982 0.271276 0.808709
259 2 35.7612 31.163 3.26671 -0.203999 0.54492 1.77436 0.53292 -0.435908 -0.777804
260 2 3.5764 19.9544 57.4979 -1.45419 -2.04386 -1.31176 -0.40433 0.0357438 -0.33345
261 1 52.2496 57.9104 14.8431 0.205466 0.124248 -1.10651 -0.141297 0.0393016 0.0694317
262 2 33.6032 23.8534 4.5581 -0.971487 0.569311 0.766594 -0.632346 0.530094 0.175157
263 2 10.1232 10.9603 3.13082 1.27401 -1.79427 1.45836 0.425736 -0.0506506 0.0546725
264 2 24.2518 22.8886 51.6083 1.92959 2.55267 -0.258974 -0.104209 -0.010961 -0.100798
265 2 16.1831 45.5946 10.9922 1.48118 -0.126635 -1.25889 0.548728 0.537524 -0.235026
266 2 36.3052 33.375 40.8382 -0.406212 0.931366 2.11897 0.285105 0.0119005 1.13602
267 2 32.3303 54.3459 19.8611 -1.1821 2.03141 2.57226 0.270104 -0.660532 -0.27324
268 2 7.82794 17.2831 41.8225 -0.241323 -0.913296 -1.66766 0.127669 -0.329341 0.0938024
269 1 19.6243 52.1096 16.9397 -1.59215 0.803431 0.691876 -0.277779 0.00534874 0.397546
270 1 51.0281 21.5776 45.6818 1.50556 3.5576 -0.182392 -0.057979 0.0946229 -0.96465
271 2 6.36125 0.574518 26.5649 2.94599 -0.645404 1.26402 0.671216 -0.195837 0.101219
272 2 19.9421 23.0543 9.83204 1.15797 -1.05374 -1.36755 -0.00711489 0.232663 0.0827343
273 1 7.77196 27.5583 11.0292 -1.08024 2.39702 -1.02409 0.343886 0.225952 -0.565981
274 2 2.33317 35.8176 6.27275 -0.616901 -0.955182 -1.6989 0.128275 0.206019 -0.0410519
275 1 33.866 52.8376 38.7077 1.26266 0.354538 4.44934 -0.527811 -0.179667 -0.0304446
276 1 18.3653 31.7889 43.2563 -1.89578 -2.05437 2.01959 -0.482586 0.086523 0.130736
277 2 34.4779 19.468 39.6971 1.05824 -0.72312 0.531625 -0.0864094 0.591008 0.503738
278 1 15.5458 22.1669 44.4142 -0.226957 -0.241553 2.11946 0.0184441 0.949066 -0.141084
279 2 10.7547 1.23741 53.7946 0.295406 -1.79423 -1.23811 0.00773875 -0.0301923 -0.304399
280 2 2.58676 59.1083 38.8197 -1.83643 0.168204 -1.68311 0.0276768 -0.254649 0.125127
281 2 12.0407 29.3239 2.26623 1.2553 -0.296433 0.20016 -0.0378986 0.388938 -0.0599707
282 2 32.1506 2.8626 12.097 0.885521 0.26997 -0.118013 -0.344243 0.405495 0.165628
283 1 51.5624 43.273 2.70213 -2.91444 0.20518 -1.8389 0.407608 -0.23727 -0.321363
284 2 42.8767 20.554 35.7103 2.22746 0.376212 -1.3239 0.469881 0.157368 -0.28093
285 1 58.5939 21.2257 18.6543 -2.34816 0.920931 -3.23402 1.17518 -0.498896 0.688316
286 1 3.82002 52.1392 47.6163 0.0294097 0.739516 0.619228 -0.556148 -0.0189214 0.256845
287 2 23.8061 0.668432 8.92469 -0.0546943 0.528014 2.92966 -0.019944 -0.141936 -0.122238
288 2 56.7605 30.5232 35.5849 1.09847 -2.66927 1.6503 0.740802 -0.426462 0.285871
289 2 16.0582 53.8481 31.0142 -0.485612 1.68525 0.883086 0.184859 0.388447 0.41652
290 1 55.873 13.5238 46.2153 0.53462 -2.7831 4.38736 -0.237072 -0.198225 -0.198422
291 2 52.4602 6.65758 55.5657 -0.607724 -0.40239 1.78373 0.212359 -0.108859 -0.0148004
292 2 38.6778 4.75577 7.84502 1.73757 -0.393506 -0.0974023 -0.170475 0.526059 -0.160004
293 2 2.83335 56.0986 39.9353 2.93725 -3.08055 -2.1918 -0.167999 0.171787 -0.0918362
294 2 6.52996 54.9182 31.7201 1.16578 -2.44494 1.19165 0.114796 0.280629 -0.558818
295 1 3.97799 33.794 20.8143 1.85325 3.91496 -1.14988 0.044724 -0.323412 0.192018
296 1 41.3105 2.3236 20.5606 1.89745 0.430952 0.222765 0.507921 0.309352 -0.406889
297 2 52.4665 28.5634 27.4222 -2.15894 2.31068 -1.20302 -0.369406 -0.425388 0.160968
298 2 25.9705 51.1832 43.3048 -1.21045 1.0108 -0.0310059 0.52775 -0.593946 -0.717072
299 2 46.1238 20.4885 35.0514 -1.20832 2.64982 4.79039 0.0251014 -0.478824 0.617178
300 2 42.432 47.7478 14.9918 -0.328614 0.222456 2.06127 0.152582 -0.164173 0.0605182
301 1 14.5557 47.3376 28.0548 -0.714134 1.66983 1.2441 0.42133 0.0383098 -0.140235
302 1 53.3087 13.2533 27.1093 1.88701 -0.307768 3.638 -0.66655 0.734186 -0.169009
303 2 10.7719 51.3952 9.87976 -1.35236 -2.09516 -1.74451 0.258378 -0.0247332 -0.12062
304 2 3.54016 8.25946 14.0515 0.871501 -1.99056 -1.45179 0.538304 -0.426972 0.367313
305 1 55.7045 41.0494 8.89455 -1.78019 -0.0646532 -0.126804 0.0874302 0.0506148 -0.128897
306 1 57.5511 17.7741 46.8992 0.0885743 1.25991 0.621836 0.73817 0.0577847 0.792081
307 1 8.7381 48.5036 53.6839 1.81459 -3.8298 -0.0470374 -0.363642 -0.07555 -0.292931
308 1 50.6413 39.176 22.1201 1.70224 2.5648 -0.988041 -0.609367 -0.085537 0.409941
309 1 1.4656 27.7667 18.3262 2.09303 3.66488 -3.83089 0.155488 0.258836 -0.157621
310 1 27.9921 40.6349 6.53991 0.604189 -0.290872 1.87105 0.291783 -0.675151 0.171038
311 1 4.2721 56.6444 32.5679 0.65131 -2.96443 -2.87351 -0.028592 -0.212122 -0.115707
312 2 5.68545 30.6499 50.6801 -0.0778167 -1.21687 -1.13849 -0.383632 -0.352343 -0.748618
313 2 9.79092 36.7016 6.70849 -3.10375 1.4593 -1.87403 -0.385176 -0.116046 -0.215338
314 1 28.1932 56.3048 8.55863 1.46563 -2.1232 4.77154 -0.379735 0.362339 -0.0821705
315 1 4.58355 52.823 15.6271 0.460141 -0.584373 0.80062 0.135162 -0.0029735 0.00152791
316 1 6.72479 3.28542 37.4653 -0.665718 -0.751914 -0.182333 0.181306 0.247265 -0.466981
317 2 29.9952 49.3831 9.41482 1.47524 0.702048 -2.14836 0.1693 -0.78634 -0.531664
318 2 58.5646 50.2744 9.05437 -0.223639 -2.32607 1.51265 -0.263763 0.695298 -0.560451
319 2 47.483 5.43995 13.2517 2.097 -1.9881 1.32075 0.587074 -0.239422 0.0336787
320 1 8.3506 53.5873 5.35782 -0.694906 -5.25166 2.05127 0.304738 0.142425 0.453131
321 2 23.1214 57.0402 47.4906 2.19348 -0.420501 0.59351 0.33429 -0.832248 -0.0730042
322 1 10.3564 31.4149 53.1789 -0.28904 -0.694068 1.5095 -0.242128 0.10881 0.538892
323 1 38.6471 34.3505 13.9876 2.13687 -2.01984 -2.67181 -0.0891346 -0.473879 0.365721
324 2 57.4706 13.2211 4.92623 1.30333 0.424635 -2.20062 0.42706 0.230872 -0.275628
325 1 17.7227 3.96177 48.9142 0.0737844 -1.40107 0.803885 0.0728814 -0.0729252 0.181609
326 2 26.7998 2.40685 57.3951 -1.08039 0.744581 -1.33927 -0.0710602 -0.0622001 -0.146368
327 2 27.0359 40.8697 21.9302 -1.91421 -1.12785 -1.93434 -0.0552108 0.336131 0.0530835
328 2 32.7513 31.9164 31.6026 1.05967 4.36132 1.15739 0.114296 -0.219265 0.199279
329 2 39.5436 3.99659 50.7049 -3.23987 -1.13632 0.519329 -0.372695 -0.0988409 0.270175
330 2 48.7666 52.6701 7.05477 -0.449604 -2.18965 0.621794 -0.364172 0.135426 0.170441
331 2 36.3132 16.487 24.4419 0.122229 1.32413 2.5532 0.706426 1.19581 -0.624135
332 2 2.46364 17.9367 34.0941 -0.904446 1.54718 1.22847 0.129101 -0.111974 -0.444087
333 2 47.9537 2.75032 11.4245 -0.985661 0.0830246 3.25923 -0.395161 0.136649 -0.311263
334 1 55.6892 12.7926 2.36053 3.46704 -1.35549 -2.32132 -0.0895339 -0.207531 -0.169284
335 2 33.088 55.6474 50.3738 -0.763036 -1.08427 -1.67291 0.188689 0.192453 0.398341
336 2 17.8775 13.0858 34.8055 1.44311 -0.93939 0.221751 0.0194843 0.350814 -0.165931
337 1 8.68544 4.09427 4.0308 2.35099 3.19763 -0.177876 0.543453 -0.0382421 0.385518
338 1 11.2138 46.1137 28.2873 2.89651 0.486252 0.051035 0.421234 0.444696 -0.0519991
339 2 11.7388 24.478 51.9436 1.87001 -0.0487826 -0.132508 0.562801 0.190937 0.551525
340 1 30.4224 42.4459 57.1977 2.25272 -0.254624 1.02928 0.532334 0.053613 0.37512
341 2 57.8254 32.2609 53.6726 -0.20342 -1.00267 0.867778 0.00533064 0.258948 0.0701586
342 1 20.4053 29.2238 0.094634 -0.786211 1.90646 1.54715 0.391952 -0.237254 -0.119782
343 1 54.1452 18.7651 57.1429 -0.782817 -0.214543 0.145036 0.17008 -0.195325 0.0803177
344 1 20.3034 25.1879 58.3486 3.59991 -1.14372 -0.0701503 -0.343602 -0.59458 0.119983
345 1 44.2977 32.1735 23.5607 1.39583 -2.69243 3.39494 -0.323708 0.307545 0.373219
346 1 50.6881 2.98537 30.7488 -1.36811 2.90147 -0.40986 -0.0879249 0.093372 -0.0408509
347 2 53.6377 43.1516 0.383961 -2.29873 0.0722258 0.423196 -0.509938 -0.0674474 -0.25947