ITEM: TIMESTEP
22000010
ITEM: NUMBER OF ATOMS
11664
ITEM: BOX BOUNDS pp pp pp
-0.0148528 59.4149
-0.0148528 59.4149
-0.0148528 59.4149
ITEM: ATOMS id type x y z vx vy vz fx fy fz
1 1 33.5723 8.90402 26.3473 -2.29951 -1.83691 1.76754 -0.480838 -0.222213 0.32651
2 2 36.4547 38.5115 24.8645 -2.30754 1.10321 -0.574433 -0.120342 -0.0714832 -0.0901164
3 1 23.8378 5.08404 59.4269 -3.0199 1.12748 0.534857 -0.15904 0.447832 -0.375611
4 1 9.75266 54.013 22.0306 1.26002 0.866578 1.97506 0.567543 0.433821 -0.084828
5 1 15.1769 7.97157 13.0295 1.06018 2.70517 -3.08488 0.152588 -0.54011 -0.406678
6 2 35.9299 39.044 0.435665 -2.26599 -0.795508 -1.23528 -0.208821 -0.397697 -0.00386169
7 1 20.1631 1.90017 13.7966 0.465272 1.08842 -2.02635 -0.346121 0.402979 -0.111003
8 1 19.082 28.8199 20.6307 3.07969 1.0595 -2.88747 0.263682 0.619413 0.459111
9 2 43.7847 59.1903 9.94571 1.15284 1.33434 2.16744 -0.11728 0.35211 -0.180651
10 2 54.995 11.7128 9.57842 0.788586 -1.90915 0.97954 -0.299285 -0.181505 0.139067
11 2 33.7918 26.8155 19.5256 -2.90385 1.07917 -1.36906 0.229686 -0.0294013 -0.0483132
12 2 22.9336 55.2728 16.1161 -1.80062 -1.57615 0.276093 -0.581417 -0.253051 -0.239346
13 2 15.9718 22.543 18.3233 0.383226 2.20186 1.61272 0.0181852 -0.670591 -0.281342
14 2 20.2468 5.39097 7.59413 0.441763 -1.53799 0.893103 -0.238173 -0.337503 -0.0934622
15 2 52.6464 6.66716 36.672 2.11887 -0.74671 -1.14305 0.530287 -0.0979497 -0.291252
16 1 39.6647 42.5747 53.4643 -1.46781 -1.32343 1.98536 -0.264719 0.260676 -0.208753
17 1 27.0489 23.1032 23.6839 0.790713 0.278199 -1.36296 0.249405 -0.124764 0.196968
18 1 0.694509 46.1628 47.0481 2.24757 0.868087 -0.729847 0.737826 -0.807654 -0.229339
19 2 33.4791 10.9955 46.2883 0.839869 0.629342 2.74897 -0.00115714 0.353025 -0.672214
20 2 1.59167 30.4772 55.3467 0.777771 2.00697 3.11944 -0.0134319 0.132216 0.111757
21 2 3.97949 23.1825 45.241 -0.650506 -3.79495 -1.16611 0.639697 -0.412987 0.0942159
22 1 22.7216 5.13992 14.9442 2.74832 -1.54604 -2.28463 0.271045 0.198784 -0.2195
23 1 51.8463 2.98654 28.4691 -5.65278 -0.891981 3.66927 0.706952 0.153739 -0.341131
24 2 22.5105 5.82376 11.4125 0.151031 -1.17037 0.879487 -0.442213 -0.15474 -0.321319
25 1 58.9502 12.0486 25.3722 -2.28398 -2.05932 -0.722439 0.104578 -0.128005 -0.189496
26 1 39.0321 16.715 22.661 -0.311801 -0.0503929 2.00105 0.238516 0.417837 0.305535
27 2 56.4353 47.8786 16.6043 -0.9676 0.642113 -0.749664 -0.329892 -0.643876 -0.35474
28 2 31.581 14.6075 25.0741 1.7607 -1.62913 -1.96049 -0.672605 0.259646 -0.0538877
29 2 35.5949 58.1169 50.0733 1.02833 -2.46715 -1.49269 -0.0351924 -0.682469 -0.411193
30 1 39.5627 24.7888 23.3502 0.903806 -1.24298 0.62506 -0.243784 -0.235507 0.222861
31 2 56.4058 24.9132 12.3371 -1.07488 0.328798 -1.58349 -0.666547 -0.00699102 -0.138947
32 2 10.8232 32.2673 3.65592 -1.26038 -0.248584 -0.655861 -1.10875 -0.467872 -0.707489
33 2 36.7244 13.4125 41.0056 -1.56563 1.76965 -0.305897 0.269087 0.349814 -0.34753
34 1 23.2406 53.0303 32.1419 -0.778107 -2.17614 -0.0880175 -0.305268 0.641985 0.303334
35 1 55.7853 15.5322 31.2246 0.214885 0.0203469 1.95804 0.702745 -0.427517 0.0850203
36 2 48.5926 49.7711 31.7002 3.36983 1.66023 0.0167461 0.0642526 0.137924 0.153364
37 1 33.0016 17.3777 31.7391 -0.661499 -1.45229 0.65127 -0.0855346 -0.0692968 -0.0601667
38 2 44.5988 15.1714 11.2257 1.88344 -1.66492 -0.343784 0.0380633 0.0217698 -0.0268484
39 1 53.8269 55.1841 18.4078 -0.937653 3.73127 -2.04112 -0.6645 -0.436282 -0.139092
40 1 29.3873 54.8564 24.993 1.70104 -0.316185 1.68988 0.50675 0.177514 0.528882
41 2 50.7167 51.8935 55.1142 2.76961 -0.88312 1.78882 -0.428677 0.129373 0.0589657
42 1 44.3549 2.94035 53.8595 -1.2941 -0.751357 -1.12703 0.0617721 -0.170006 -0.232744
43 1 5.2665 11.4854 45.4769 2.0741 0.47485 -1.34871 0.26988 -0.334553 0.0530407
44 2 42.2389 38.7931 33.5228 1.92417 -1.24106 -0.142978 -0.155113 0.183241 1.0736
45 2 44.7553 37.9274 31.9524 -1.09962 -0.559955 -0.49622 -0.422466 0.0999546 0.211922
46 1 41.4456 58.1079 55.7759 -0.937508 -1.86763 -0.00861053 -0.277442 0.408586 0.148941
47 1 48.2817 12.6208 24.3881 1.75418 0.545376 1.23023 0.130794 -0.443707 -0.00253261
48 2 40.1317 46.3174 38.5408 -0.718518 -1.58261 -3.54486 1.00399 -0.498 0.0554358
49 1 27.5931 51.9843 45.1902 -4.4022 1.37729 -0.817476 0.153071 0.330427 -0.26037
50 2 19.37 47.7102 56.5669 -0.00127807 -0.945644 -0.747433 0.170057 0.529282 -0.106672
51 1 15.5302 2.65745 45.578 -0.00300152 0.227809 -0.575851 -0.016055 0.148899 0.235208
52 1 18.6983 45.6222 49.2477 -0.737764 -1.18337 1.25597 0.305016 -0.264054 -0.362271
53 1 10.7062 27.6098 6.67581 0.882083 -0.333373 1.06775 -0.299027 -0.293716 -0.242488
54 1 32.7693 12.9188 52.9592 0.930076 1.04659 0.870506 0.617959 -0.954895 0.486123
55 2 52.1533 25.5636 29.3859 -1.06593 0.823738 2.52183 -0.524633 -0.324367 0.16608
56 2 22.1394 59.2856 56.4211 0.194291 1.40641 1.90298 -0.247335 -0.0934139 -0.239489
57 1 45.7152 21.4984 43.8609 3.24784 0.462706 2.1518 -0.492254 0.071489 -0.0488576
58 2 37.5353 54.1049 55.4479 2.42767 0.226175 -0.00215526 0.616615 -0.61419 1.02339
59 1 20.2217 4.25945 2.70437 0.417421 -0.58236 0.660457 0.453848 -0.11358 0.0679285
60 2 10.5776 9.37752 17.802 -1.82347 1.06916 -1.27122 0.0129844 0.30427 -0.360532
61 1 24.4005 39.6509 22.2974 1.57862 -0.52716 -3.54741 -0.316212 0.299468 0.395787
62 2 57.621 26.6607 1.33159 -0.39715 0.687074 2.10104 -0.0965071 -0.0204862 -0.29667
63 2 50.1069 22.8529 40.9473 -3.61463 -0.795801 2.85849 -0.0166596 -0.102951 -0.438079
64 2 5.69284 32.2768 29.8855 1.75144 0.449675 2.6842 -0.510268 0.0866186 0.293599
65 1 27.543 15.0527 13.5605 -0.420937 -2.49017 2.24558 -0.410167 0.173535 0.372845
66 1 37.5409 25.4492 31.2306 -0.0181397 3.30172 -0.688989 -0.779311 -0.929482 -0.193049
67 1 35.9352 34.7921 52.6251 -5.33479 2.03842 0.379455 0.0159862 0.354503 0.383049
68 2 43.8689 46.0568 57.8634 -0.529677 0.0303316 1.89686 -0.420298 -0.453768 -0.45416
69 2 23.6028 55.739 30.4473 1.27897 0.344051 -4.54086 0.0733243 0.54458 -0.554453
70 2 16.3487 17.3698 18.068 3.1745 -2.83344 0.106297 0.732426 -0.471227 0.0368346
71 1 20.3414 4.62187 10.1829 -2.91377 0.134098 0.545932 -0.411489 -0.025705 -0.323857
72 2 5.03018 42.5901 12.1124 1.05141 0.46636 1.41239 -0.109159 -0.0468395 -0.477401
73 2 43.0041 12.6616 50.3333 0.87218 -1.36689 -0.209893 0.105859 0.267611 0.246496
74 2 26.7181 22.0279 50.0351 -0.795455 -1.59023 1.66806 0.0027799 -0.178207 0.155421
75 2 29.7429 57.5456 31.8188 0.247059 -1.6689 1.3811 -0.671214 -0.691171 0.0173073
76 2 19.7595 55.2269 56.3906 -2.69237 -0.550983 0.46378 0.907369 1.03197 0.558305
77 2 13.0085 22.4004 27.8281 0.761141 3.22128 -1.99098 0.0694084 0.0147608 0.306024
78 1 3.44268 19.7336 19.5304 0.775336 -2.25035 -5.07481 -0.210084 -0.534726 0.203785
79 2 51.9612 10.9224 29.5685 -1.38919 -2.23825 -1.5753 -0.625826 -0.290921 0.843623
80 1 10.5848 20.2958 23.8932 -2.80326 -2.39668 1.12756 0.28393 -0.3792 0.0428797
81 2 5.07935 45.7849 27.0198 -1.36865 1.53262 -0.231026 -0.837897 -0.635754 -0.313287
82 2 31.8046 17.3869 56.1093 -1.63884 0.297532 1.61548 0.425259 0.242729 -0.114471
83 2 7.04634 39.4678 31.676 -2.79054 -1.97971 -0.506419 0.109691 -0.483781 0.45296
84 2 45.315 27.8936 45.9534 1.93783 -2.36125 1.90599 -0.0891178 -0.0866737 0.505539
85 2 54.3056 12.5649 52.6053 -0.430512 -0.560306 -0.0474458 -0.392031 0.589363 0.108622
86 2 6.96198 10.9219 3.6115 0.582031 -1.00525 5.1474 0.233453 -0.579188 0.0147476
87 1 12.1034 11.8674 22.223 1.21873 -0.0602284 0.674344 -0.259633 0.282901 -0.112948
88 2 22.0627 59.1097 34.1562 -2.53574 0.0465345 2.38049 -0.43438 0.126401 -1.00004
89 1 28.2708 12.7535 46.3253 1.90162 0.741528 -3.16588 0.677381 -0.0183555 -0.212492
90 2 35.2211 55.8691 4.45776 -0.589379 -0.996462 -1.42709 -0.0239056 0.00326221 0.252208
91 2 3.79153 49.303 21.7458 -2.53734 -1.748 1.33179 -0.701463 -0.267158 0.199853
92 1 42.3816 7.45987 8.43397 -0.372419 2.19046 -4.46806 -0.381408 0.0297265 -0.346995
93 2 6.26351 46.757 18.5103 -2.30568 0.217872 -0.863357 -0.604924 0.0260321 0.397667
94 2 6.35283 26.2477 37.4332 2.60226 -0.00990798 1.81797 -0.127004 -0.0540573 -0.158163
95 1 26.139 42.47 52.482 -2.84639 -2.68363 -1.49477 0.42481 -0.0479651 -0.010564
96 1 7.90743 36.5068 27.7577 -1.96885 -2.34656 -5.00279 0.439405 -0.79172 -0.907696
97 1 0.310812 2.43801 58.0934 -2.12408 1.72909 -0.42631 -0.458983 0.142024 -0.0412211
98 1 18.4681 33.1448 1.41681 -1.74711 2.07638 -3.74567 0.296013 -0.0981045 0.441357
99 1 53.806 1.93822 51.9013 1.83043 1.59087 -2.74222 -0.0383538 -0.345532 0.103856
100 1 12.2241 40.4572 57.2109 0.770452 -2.88153 2.16899 -0.0877845 0.125936 0.275364
101 2 5.52894 44.6243 40.4019 1.66015 1.27802 3.96979 -0.561172 -0.151389 -0.0488354
102 1 18.5867 6.52535 49.4934 0.327468 -1.38581 -2.8518 0.561663 -0.443678 0.644899
103 2 40.7116 31.0461 34.7336 1.32808 -0.319839 0.288736 -0.116907 0.15017 0.704344
104 1 47.6618 24.0821 20.1768 -1.37747 -1.48376 7.03323 0.216062 0.11844 -0.181923
105 2 33.0598 39.94 20.3773 1.7011 -0.188402 -1.84749 -0.0667938 -1.43896 0.0279316
106 1 30.7775 0.390122 2.21306 3.31626 2.4739 2.68506 0.255883 0.195987 -0.264902
107 2 56.6657 16.8702 26.5807 -0.454991 1.02917 1.85446 0.677807 0.0681614 -0.332231
108 1 5.6344 27.9055 27.6485 0.562812 -1.41539 -0.322817 -0.445961 -0.364662 0.328679
109 2 32.1636 20.2455 22.4314 0.796978 -2.02005 0.132075 -0.100918 -0.75181 0.0820333
110 2 37.5882 0.294973 30.3342 0.365383 1.18414 -1.13923 0.179285 0.207177 -0.177552
111 2 8.73109 55.6512 24.0999 0.302504 1.6992 -2.37925 0.297254 -0.256013 -0.136118
112 2 54.5048 30.6308 20.3249 0.308512 1.11295 0.52228 0.469494 -0.00965592 0.588112
113 1 20.4369 15.6044 52.5321 -1.79026 1.32466 2.00828 -0.336561 -0.123985 -0.13991
114 1 14.6701 13.0338 31.0771 -1.54147 -0.99806 -3.74147 0.249742 -0.261952 -0.356268
115 1 46.3859 47.4321 58.008 2.8749 -4.59682 0.131564 -0.688645 1.25954 -0.601796
116 1 45.1334 42.8805 22.0596 -2.25499 -1.72621 0.400601 -0.342359 -0.249093 0.593406
117 1 23.6991 27.6574 31.8222 1.56222 -1.2594 0.691461 -0.105407 0.00755867 -0.211497
118 2 1.97959 47.1971 56.7405 -0.206436 0.336534 -1.36015 0.364538 0.524974 -0.159912
119 1 52.4517 57.4119 39.5793 2.08799 -1.58825 0.656504 0.18177 0.244882 0.85588
120 1 41.4849 0.238431 52.0589 -0.126565 0.464674 0.462141 0.410604 -0.0472995 0.812038
121 1 24.0312 41.2045 37.9816 0.947053 1.69595 -3.2775 -0.676973 0.294536 -0.0646542
122 2 53.5739 36.2038 33.4858 -0.853877 -0.533593 1.20337 0.162443 0.257781 0.495051
123 1 2.85418 12.5103 42.1237 -1.02666 2.96704 -1.41498 -0.271629 0.257093 -0.0432735
124 2 39.3262 26.4807 46.8263 -0.15897 1.84008 -1.16667 0.0328588 -0.100385 0.66888
125 1 50.979 14.3208 40.9129 -1.68927 -0.0156468 -2.69467 -0.239394 -0.233303 0.157095
126 2 43.4873 39.3306 36.4516 0.0246077 3.4911 1.82142 -0.338591 0.208819 0.181711
127 1 7.40763 40.9636 36.6662 -3.84625 3.94007 -0.99207 0.297921 0.129257 0.135882
128 1 11.7898 16.0182 22.515 -0.467778 2.89412 0.114234 0.450535 -0.0237767 0.0902749
129 2 18.1265 3.07299 7.46256 -3.19614 1.17198 -1.52036 -0.13365 -0.153925 -0.302627
130 2 55.665 16.4033 48.23 -4.91015 -0.446241 -2.17169 -0.101046 -0.737555 0.558121
131 2 20.5053 37.4841 41.125 -0.426944 2.17381 0.598876 0.459689 -0.00316914 0.164694
132 2 34.5069 8.56413 9.29259 0.157379 2.21717 1.73936 0.634835 -0.120192 -0.234646
133 2 46.243 21.3937 38.1846 1.53436 0.837904 -0.722019 -0.0312439 0.252184 -0.188688
134 2 58.6854 49.0361 18.2436 2.05255 3.08084 1.44322 0.266584 0.440238 0.0291787
135 2 16.5001 54.1857 16.0157 1.56449 2.79451 1.7555 0.168491 -0.42955 0.293319
136 1 53.0475 17.86 14.7106 -0.431057 -1.46029 -0.154934 -0.083905 0.0854154 0.440002
137 2 5.07432 44.9083 2.3003 -0.51906 -1.16805 -1.59453 0.597421 0.00617184 -0.221236
138 2 42.8551 20.8318 18.2027 1.33892 -2.81118 2.08762 0.773016 0.0570653 -0.00752935
139 1 10.955 24.165 42.2931 -2.38713 -0.0562771 1.07098 0.0492157 -0.477932 -0.0886353
140 1 3.5339 8.03937 50.7848 -3.6741 -1.35987 -2.45302 -0.183048 0.22866 -0.260383
141 1 39.0552 42.6256 10.5625 0.898987 3.18716 1.64209 0.51004 0.650249 0.172836
142 1 16.6618 31.2976 38.2352 -0.377054 0.981213 2.82143 -0.196432 -0.128793 -0.605084
143 1 56.0393 19.5434 1.73574 0.368007 0.765355 -0.299968 0.616352 -0.135059 0.459523
144 1 45.02 8.74792 1.97742 -1.75854 0.446802 1.56964 0.418853 -0.518486 0.201237
145 2 16.3493 27.2164 41.7071 0.581086 2.33027 -2.26318 -0.147507 -1.03504e-04 0.00434952
146 2 48.0807 25.112 41.6884 1.19171 -0.0445875 -2.47783 0.0548203 -0.360657 0.233801
147 1 36.3549 43.0544 50.0025 2.47484 -3.27438 -1.96812 0.605452 0.366134 -0.146295
148 2 49.6001 49.7891 20.3538 -0.510842 2.53294 0.885515 -0.734487 0.288741 -0.50236
149 2 28.2599 48.2828 57.0064 -0.345922 -2.04285 -1.06994 0.336841 0.0796224 -0.126143
150 1 40.9632 12.3754 17.0421 -0.311145 -0.515399 -2.4606 -0.132348 0.0525365 0.00638843
151 2 1.08576 30.4532 42.1915 -0.287097 1.38974 0.251138 0.323715 -0.354268 -0.156459
152 2 45.0501 29.5497 32.4983 -0.818124 1.10301 1.09032 -0.2771 0.0713851 -0.556566
153 2 2.13643 59.4166 3.298 2.90505 0.829766 1.87209 0.0240399 0.0952933 0.477606
154 1 33.7597 6.58069 40.3413 -0.165154 -2.13716 -1.88673 0.367732 0.531699 0.284649
155 2 4.57037 56.8247 18.3498 -0.46105 0.0752021 0.347051 -0.495831 -0.111054 0.135024
156 2 5.57839 6.54604 55.9865 -0.513815 0.170584 1.88418 -0.0784533 0.380972 1.35696
157 2 51.4025 43.2536 37.6426 3.45762 -0.405963 1.25939 -0.188399 0.527529 0.215882
158 1 26.922 9.40148 24.5862 -0.141899 -0.994699 -1.57499 0.76174 0.246944 -0.460175
159 2 50.0166 19.8823 56.7353 -2.41936 1.09757 -2.13841 0.155256 0.467966 -0.453593
160 2 19.6705 55.2833 53.3654 0.128399 -1.58295 -1.7889 0.784415 0.0787159 -0.132765
161 2 2.37317 25.4006 52.3973 -1.70637 -1.85737 -1.02556 -0.0495509 -0.130976 -0.253545
162 1 8.70946 16.1601 27.1247 -2.57425 -4.1964 -4.10334 0.0271074 -0.106364 0.232538
163 2 5.20649 32.0815 1.47772 1.264 -1.4916 0.742483 0.0589864 -0.354014 0.202952
164 1 28.4543 40.5645 4.06702 1.02775 -0.34819 1.31151 -0.781122 -0.36402 -0.021048
165 1 30.0237 50.4696 25.953 3.14291 1.20063 3.34746 0.356585 -0.137068 -0.157199
166 1 21.2462 45.5758 57.4167 -1.255 1.9814 2.54643 -0.398413 -0.247074 -0.207611
167 1 20.8198 9.80479 8.78358 1.17193 2.36406 -1.93167 -0.658312 -0.196629 -0.64991
168 1 54.957 5.98899 2.43497 -1.03837 0.0874451 -1.04472 0.266523 -0.357596 0.0907228
169 2 8.20269 6.31733 5.77754 -0.0376566 0.964066 0.743924 0.238653 -0.195925 -0.346796
170 1 25.8576 30.8992 23.055 0.870077 -2.22829 1.65909 0.323642 0.0317591 0.21753
171 1 53.2703 4.07146 16.9276 -0.765519 -0.338384 0.213754 0.0759284 0.23904 -0.799151
172 1 10.3432 37.4152 3.99949 -0.312667 0.503247 -1.5993 0.164466 -0.32732 0.0292262
173 2 47.1413 27.0007 27.6027 -0.345433 0.451008 2.02885 0.252502 -0.85823 0.135505
174 1 14.3798 14.3949 14.9266 -1.83455 0.733102 -2.33626 0.496821 0.0931849 0.558779
175 2 25.067 14.4156 18.5378 0.0440638 -3.5616 -1.42293 -0.711965 0.0739499 -0.445444
176 2 7.99471 28.9393 50.2271 1.36274 0.474002 -1.10799 0.0513134 -0.0588061 0.0187813
177 1 49.5388 4.56333 45.7278 0.885248 -1.56248 0.654602 -0.185428 0.0374839 0.565861
178 2 32.6072 51.6106 6.92765 -0.00399376 0.501998 -4.7261 0.272246 -0.17529 -0.647799
179 1 58.4928 9.51242 12.8865 3.77064 2.75134 -0.571564 -0.34403 0.0622177 0.0731856
180 2 51.2098 53.7511 1.26831 0.692826 -1.17716 -0.293976 0.177195 -0.337646 0.0517542
181 2 9.59764 30.673 13.659 0.321185 -0.0512046 -0.869847 0.393832 0.131109 0.286803
182 1 38.4804 50.8915 9.75444 0.772611 -0.0389885 0.571691 -0.265701 0.390416 0.0557996
183 2 1.98408 40.8162 3.07355 -1.91102 -1.24948 0.737883 0.11384 0.805309 0.0919573
184 2 13.7242 21.9516 56.7555 1.25745 0.495097 -2.56537 -0.0223803 0.32312 -0.102678
185 1 26.851 11.3551 35.4658 1.25779 0.238262 2.31599 -0.557092 0.0181386 0.14522
186 2 52.0381 2.59959 47.292 2.23651 1.82062 -2.10665 -0.0699314 0.35146 -0.45948
187 1 43.6644 22.076 45.5266 3.25631 -1.14151 0.347912 0.0972982 0.0777877 -0.219323
188 1 31.0554 9.49071 3.84838 1.09055 0.0318344 -2.70995 0.0881518 -0.11654 0.767185
189 2 25.7656 17.7427 52.61 0.710985 -2.28939 0.404398 0.117049 0.195006 0.207651
190 2 13.2746 41.061 11.7566 -2.69052 1.00004 0.1595 0.458325 -0.530975 -0.122673
191 1 28.0459 46.5731 50.6613 -1.35611 -2.80878 0.399257 -0.125589 -0.0288352 0.138226
192 2 1.14126 10.4361 15.2313 3.59105 1.00114 -0.869032 0.693471 -0.746122 0.795967
193 1 57.2397 42.0753 33.3045 3.48579 -1.79724 0.725289 0.206577 -0.0899634 0.255573
194 1 11.507 50.1473 19.002 0.797307 -1.65577 1.28663 -0.0924872 0.73267 0.287578
195 1 51.8391 28.1403 42.4259 0.587961 -2.99549 -2.25718 -0.673473 0.0481122 0.158855
196 1 16.0741 56.0694 29.4918 1.98164 -1.16538 1.28496 0.73814 0.365286 0.966459
197 2 32.1721 0.524078 59.1482 0.601385 -0.13772 0.984076 0.440167 -0.258516 0.462544
198 2 31.3871 51.7446 0.233552 1.24371 -1.24242 1.72754 -0.707874 -0.431061 0.185172
199 2 11.1691 24.8757 11.219 2.18285 0.289936 2.55859 0.0540763 0.0804415 -0.216405
200 1 56.1765 16.2495 8.58329 -2.18278 1.70693 -0.856974 0.312064 1.24669 0.0919623
201 1 8.65503 56.0497 4.67179 4.06401 -0.306069 -2.73538 -0.923754 -0.327147 -0.308078
202 2 4.751 12.0818 40.4439 -1.97707 -1.27086 -0.198743 -0.103379 0.313882 -0.16059
203 2 57.49 11.8295 33.4344 -0.239431 -1.22109 -0.466125 0.384699 -0.479974 0.161666
204 1 31.4205 40.2204 31.3345 -0.586243 -2.87179 2.69861 -0.0221449 -0.0979794 0.143667
205 2 20.2798 58.7569 23.8568 0.648171 1.69243 0.869943 -0.848768 0.30068 -0.354324
206 2 4.2157 34.6873 3.80172 1.16182 0.569095 0.709904 0.448539 -0.531562 0.149278
207 2 13.3543 51.6402 20.3464 1.32341 -4.30259 -1.24658 -0.0961838 0.187765 0.528447
208 2 53.4689 33.1851 12.8014 -0.349984 1.99603 -1.41621 0.17961 -0.517777 0.446195
209 1 19.9026 11.3839 57.2469 0.698941 -0.0759294 1.9967 0.355865 0.0157644 0.351383
210 2 2.80342 2.4016 50.6635 -0.248274 0.244299 -1.55571 -0.703323 0.365975 -0.326221
211 2 34.309 16.6068 18.137 1.00876 0.412284 -1.90016 0.676623 -0.366284 0.269302
212 1 57.3324 31.231 30.6872 -2.05409 0.953073 -1.65322 0.0543094 0.301836 0.163164
213 2 26.3822 14.964 28.4783 0.540786 -1.75089 -2.53127 0.372323 -0.287754 0.0495719
214 1 40.7844 42.6845 26.3006 0.788631 1.70452 0.0596235 0.0879541 -0.407247 -0.299077
215 2 51.8457 20.9011 25.6784 -1.2911 -0.458855 2.99282 -0.716495 -0.732091 -0.0449709
216 2 14.8081 49.6706 22.4891 -1.71921 -2.05329 -0.978425 0.0822324 0.225696 0.279994
217 1 38.3802 39.9354 23.6281 1.4942 1.57801 4.35484 -0.121201 0.303957 -0.738576
218 2 55.4645 20.8325 56.4268 0.167843 -0.361769 -1.48128 -0.82741 -0.211684 -0.119313
219 1 49.8348 28.244 27.5844 0.238009 -1.24811 0.0896076 -0.502936 0.820107 0.381801
220 1 41.041 24.56 45.2635 -1.81518 -2.91166 2.29814 0.103475 0.327193 -0.308524
221 1 27.5907 49.9038 41.1166 -1.73811 0.794773 -0.754543 -0.449651 -0.232987 -0.189913
222 1 54.1075 34.6883 4.84728 1.36405 2.59351 -0.163681 0.0302147 0.80725 0.694405
223 1 42.5812 43.0043 6.31933 -3.52212 3.30922 -0.170343 -0.980025 -0.186084 0.00668836
224 1 9.14328 47.1415 4.26338 1.0608 -1.24157 0.65295 -0.159921 -0.168024 -0.081367
225 2 33.7691 24.8776 21.5993 1.77531 -0.270265 -0.90736 0.532462 -0.23566 0.628713
226 2 45.519 7.04474 56.5727 1.9778 1.53581 0.77085 -0.241823 0.287309 0.0115061
227 1 8.44041 8.35965 19.7075 -2.55674 0.534379 0.239392 0.170731 0.227459 -0.473033
228 2 0.424304 44.616 50.1081 1.37658 -1.18782 -2.26475 0.308066 0.200042 0.268209
229 1 18.759 10.9283 36.4067 -1.09373 1.11314 -0.866645 0.101913 0.188087 -0.414073
230 1 48.708 45.1354 32.7842 0.119787 3.7093 0.672966 -0.29949 -0.109175 -0.329873
231 1 54.4813 25.7341 21.7457 -2.43927 1.794 0.341082 -0.314444 0.125707 0.469686
232 2 49.1603 0.679965 30.6725 1.6562 -0.73784 -0.403192 -0.535937 0.420017 0.459802
233 2 33.5246 56.2088 7.33729 -0.77014 0.245743 -0.851642 -0.00793286 0.224983 0.213391
234 2 56.0648 54.0662 46.5201 -0.0742897 2.06599 -0.73702 0.742311 -0.09149 -0.30334
235 2 54.802 16.086 10.8732 0.785335 1.26222 1.34804 0.138967 0.218084 -0.171795
236 2 6.76012 29.3733 33.2254 -0.105314 1.36824 -0.486075 0.311495 0.359118 -0.0662436
237 2 57.2501 14.9242 1.65414 -0.625402 -0.706925 0.796865 -0.210202 0.406569 0.273522
238 2 56.4297 31.4428 43.3414 -1.75446 1.41664 -0.464141 -0.506511 -0.338589 -0.236472
239 1 45.6788 16.74 34.3841 2.63686 -2.36465 -0.381775 0.147629 -0.668437 -0.067875
240 1 45.1899 13.5178 55.7768 1.19337 1.65701 -0.467825 0.172479 0.769011 -0.552262
241 1 52.749 18.6265 36.5316 -2.2306 -2.30461 2.48164 0.424003 -0.613448 0.32732
242 2 25.8161 26.0832 17.3864 -1.88717 -0.0863452 -1.48739 0.241295 0.432145 0.93584
243 1 32.7506 25.362 39.2041 -0.797431 0.546493 0.273647 -0.886522 -0.466218 -0.606146
244 1 4.73648 32.7007 45.2686 2.60385 2.07678 1.00142 0.295593 -0.529898 -0.204985
245 1 18.0003 44.44 42.6616 1.39207 -1.83407 -2.10199 0.0533281 -0.213066 -0.175432
246 2 58.5597 22.7455 13.3163 -0.591394 2.67201 1.14157 -0.0865202 -0.740725 -0.221704
247 2 11.5389 8.45648 26.0645 2.76546 1.89658 0.34216 -0.0218159 -0.0677197 -0.127179
248 1 15.4596 11.7645 25.8706 0.656961 1.63136 0.722173 0.35743 0.434275 -0.444434
249 2 14.0906 21.5655 20.5301 2.72682 -0.283323 0.22651 -0.274624 -0.584297 0.581151
250 1 48.0263 40.7489 55.3699 2.19178 -2.71717 -0.462187 -0.3951 -0.30163 -0.00398282
251 2 29.6721 31.5878 8.55171 0.0229736 2.26955 1.98197 -0.357442 0.40204 -0.100943
252 1 2.82889 2.41731 32.7937 -3.45928 -1.55478 4.82613 0.0832596 -0.00677815 -0.127002
253 2 32.418 27.0098 16.763 0.131028 2.48956 0.607296 -0.592948 -0.0826574 -0.074562
254 2 34.8705 34.5913 7.67141 -2.48307 0.250955 1.22514 -0.210495 -0.502735 0.195886
255 2 30.2699 35.5125 59.2128 -3.4495 1.45036 -1.53367 0.495938 0.802146 0.232945
256 2 48.6721 14.767 14.5783 1.50821 2.86331 1.64875 0.289134 -0.0272255 -0.126725
257 2 17.3799 2.14984 43.5712 -0.856708 -1.7137 2.64119 0.254987 -0.0157576 -0.160513
258 1 45.8265 3.74071 36.9751 0.550899 -2.10972 5.15078 -0.538274 0.335206 0.452116
259 2 35.7647 31.1659 3.28348 0.597887 -0.180084 0.271066 0.391344 -0.421216 -0.975763
260 2 3.54799 19.9233 57.473 -2.05311 -1.75797 -1.76736 -0.289509 0.305576 -0.191425
261 1 52.2502 57.9132 14.8278 -0.129015 0.211657 -0.730561 -0.12103 0.0361288 0.246012
262 2 33.5794 23.8703 4.57299 -1.96029 1.55778 1.11823 -0.511256 0.607054 0.226268
263 2 10.1485 10.9312 3.15473 1.84543 -1.81329 1.52734 0.234741 0.0458507 0.0156117
264 2 24.281 22.9294 51.6031 1.69807 2.54385 -0.383304 -0.168141 -0.0212564 -0.0470866
265 2 16.2137 45.5998 10.9701 2.29625 0.756168 -1.41337 0.385656 0.481457 0.0702106
266 2 36.3023 33.3891 40.8855 0.0127381 0.76528 3.65497 0.202412 -0.213203 0.642181
267 2 32.315 54.367 19.898 -0.735111 0.457538 2.00429 0.242786 -1.13261 -0.386319
268 2 7.82593 17.264 41.7975 0.0079234 -1.46687 -1.42242 0.161748 -0.306195 0.207178
269 1 19.5959 52.1227 16.9577 -1.81937 0.819966 1.51866 0.0613735 -0.00480904 0.278992
270 1 51.0501 21.6345 45.6618 1.17937 3.41509 -2.20179 -0.211621 -0.232972 -0.67538
271 2 6.4158 0.561302 26.5867 3.75576 -0.990822 1.46406 0.244345 -0.176453 0.1187
272 2 19.9603 23.041 9.81176 1.11506 -0.588454 -1.12629 -0.0369501 0.3117 0.196805
273 1 7.76136 27.6004 11.0026 -0.244972 2.79446 -2.22545 0.322328 0.0739226 -0.394352
274 2 2.32544 35.8058 6.24507 -0.307827 -0.488778 -1.73881 0.234157 0.32482 0.00288079
275 1 33.8748 52.8399 38.7761 -0.226051 -0.076154 3.93972 -0.665538 -0.167044 -0.401321
276 1 18.3275 31.7582 43.2912 -2.69161 -1.7529 2.33559 -0.150555 0.163409 0.117631
277 2 34.4939 19.4638 39.7125 0.951555 0.164685 1.37107 -0.0378238 0.435582 0.466499
278 1 15.5426 22.1819 44.4449 -0.160148 2.0897 1.66166 0.0489265 0.860007 -0.249272
279 2 10.7597 1.20832 53.7707 0.357056 -1.82088 -1.75095 0.0617255 0.00658866 -0.279023
280 2 2.55758 59.1077 38.7952 -1.80029 -0.23796 -1.3352 0.0292541 -0.217564 0.285866
281 2 12.0596 29.3249 2.26792 1.06583 0.441112 -0.00958583 -0.186835 0.454911 -0.166809
282 2 32.1603 2.8724 12.0978 0.338551 0.962106 0.250967 -0.302511 0.396956 0.258989
283 1 51.5249 43.2719 2.6674 -1.69157 -0.328818 -2.41531 0.594564 -0.187789 -0.138527
284 2 42.9175 20.562 35.6866 2.77609 0.617458 -1.55433 0.156235 0.126782 0.0168677
285 1 58.581 21.2301 18.6182 0.818881 -0.408073 -1.14443 1.37192 -0.576236 0.967445
286 1 3.80956 52.1501 47.6307 -1.31882 0.56817 1.14855 -0.53357 -0.123341 0.175131
287 2 23.805 0.674307 8.96862 -0.0906892 0.183733 2.48152 -0.0248459 -0.253049 -0.41339
288 2 56.7882 30.4766 35.6136 2.35829 -2.99963 1.81669 0.750163 0.0819296 -0.113813
289 2 16.0525 53.8795 31.0335 -0.241163 2.16223 1.47696 0.104521 0.149321 0.259623
290 1 55.8769 13.4765 46.2807 -0.0564986 -3.03863 3.70866 -0.240973 0.00692417 -0.366675
291 2 52.4528 6.65032 55.5937 -0.359656 -0.447983 1.66791 0.0747079 0.0570177 -0.129743
292 2 38.7023 4.75631 7.84073 1.25829 0.451777 -0.459308 -0.407017 0.459553 -0.257577
293 2 2.87694 56.0531 39.9009 2.43112 -2.51187 -1.97831 -0.46865 0.52877 0.357511
294 2 6.54961 54.8841 31.7311 1.26329 -1.74607 0.172544 -0.00249299 0.541655 -0.627227
295 1 4.00686 33.8475 20.8017 1.64471 2.57417 -0.278204 -0.239149 -0.782439 0.52493
296 1 41.3491 2.3352 20.5556 2.79922 0.936468 -0.885479 0.194722 0.0892125 -0.493793
297 2 52.4274 28.5939 27.4052 -2.68599 1.46842 -0.913069 -0.20115 -0.555228 0.179123
298 2 25.9586 51.1909 43.2946 -0.266263 -0.0907286 -1.2373 0.567329 -0.697028 -0.690713
299 2 46.1058 20.5232 35.1347 -0.979751 1.61322 5.50045 0.235814 -0.741242 0.185653
300 2 42.4283 47.7484 15.0249 -0.172621 -0.19957 2.02534 0.0271485 -0.298287 -0.123428
301 1 14.5525 47.3644 28.0709 0.319511 1.63958 0.705123 0.419683 -0.0665766 -0.295624
302 1 53.3254 13.2621 27.1631 0.161066 1.37261 3.02545 -0.725709 0.607352 -0.325719
303 2 10.754 51.362 9.85165 -0.854446 -2.00501 -1.66065 0.330778 0.143339 0.220743
304 2 3.5612 8.22215 14.0333 1.74704 -2.61945 -0.805699 0.468395 -0.276743 0.378588
305 1 55.6782 41.0494 8.89026 -1.47728 0.0596873 -0.379238 0.175448 0.0490849 -0.0761603
306 1 57.5668 17.7949 46.9237 1.82453 1.28833 2.35616 0.658873 -0.0602656 0.587091
307 1 8.75879 48.4435 53.6776 0.69888 -3.53332 -0.722453 -0.550046 0.301599 -0.239386
308 1 50.6574 39.2152 22.1129 0.363926 2.31335 0.132519 -0.468068 -0.12879 0.499557
309 1 1.50132 27.8288 18.263 2.33249 3.9745 -3.98624 0.0410174 -0.0256086 0.0521309
310 1 28.0068 40.6183 6.57284 1.17874 -1.6998 2.22961 0.17536 -0.463433 0.116435
311 1 4.28228 56.5942 32.5216 0.6569 -3.21108 -2.76588 0.0351187 0.0250022 0.212814
312 2 5.67908 30.626 50.6531 -0.695546 -1.73493 -2.12959 -0.335138 -0.237844 -0.386032
313 2 9.73637 36.7226 6.67638 -3.66762 1.10034 -2.06671 -0.250311 -0.305024 0.00619003
314 1 28.2076 56.2805 8.63103 0.2295 -0.765493 4.11778 -0.610851 0.734105 -0.476116
315 1 4.59242 52.8135 15.6397 0.582722 -0.6188 0.754228 -0.0419843 -0.0330863 -0.0521981
316 1 6.71755 3.27868 37.4532 -0.232067 -0.0457764 -1.33765 0.177462 0.32902 -0.471028
317 2 30.0204 49.3839 9.37451 1.60737 -0.593705 -2.78442 -0.0209541 -0.715076 -0.198901
318 2 58.5573 50.2474 9.07037 -0.717107 -1.02267 0.463241 -0.302976 0.814115 -0.661806
319 2 47.5233 5.40533 13.2727 2.82967 -2.28903 1.25998 0.24652 -0.104622 -0.112035
320 1 8.34515 53.5096 5.39798 0.00322835 -4.24221 2.87082 0.260195 0.686779 0.201165
321 2 23.1607 57.0246 47.4989 2.67289 -1.35606 0.411955 0.191388 -0.233767 -0.137329
322 1 10.348 31.4062 53.2121 -0.680129 -0.361643 2.50813 -0.0686625 0.161949 0.257422
323 1 38.6788 34.3095 13.9519 1.77985 -3.039 -1.77627 -0.206349 -0.336684 0.373822
324 2 57.4964 13.2304 4.88753 1.83465 0.688326 -2.59733 0.173568 0.0639184 -0.171109
325 1 17.7257 3.93738 48.9305 0.317214 -1.6569 1.21527 0.113422 -0.119255 0.153167
326 2 26.7827 2.41822 57.3722 -0.980077 0.702249 -1.49593 0.191455 -0.00471193 -0.0261637
327 2 27.0057 40.857 21.9003 -1.77883 -0.408348 -1.78107 0.223396 0.502121 0.14493
328 2 32.7691 31.982 31.6232 1.13079 3.7421 1.35862 -0.0303427 -0.534327 0.0240059
329 2 39.4873 3.9777 50.7165 -3.72917 -1.1646 0.894432 -0.162215 0.0728711 0.163109
330 2 48.7539 52.6374 7.06696 -1.19085 -1.87257 0.906272 -0.487178 0.243657 0.15786
331 2 36.325 16.5234 24.473 1.3549 3.14907 1.24864 0.709223 0.90667 -0.910978
332 2 2.45204 17.9598 34.1083 -0.456699 1.33981 0.586787 0.39224 -0.132876 -0.314916
333 2 47.933 2.75349 11.4714 -1.57777 0.324842 2.53311 -0.279609 0.143435 -0.536838
334 1 55.7408 12.7682 2.32283 2.82423 -1.59401 -2.18862 -0.450175 0.0138574 0.285077
335 2 33.0783 55.6333 50.3531 -0.472766 -0.644171 -0.886246 0.140522 0.322784 0.523676
336 2 17.9005 13.0751 34.8067 1.40044 -0.416073 -0.0740195 -0.0837627 0.261863 -0.183652
337 1 8.73252 4.14448 4.03524 3.4531 3.06425 0.728731 0.334885 -0.091363 0.353317
338 1 11.2663 46.1303 28.2872 3.51834 1.59367 -0.0689648 0.0542238 0.441398 -0.0543233
339 2 11.7746 24.4791 51.9486 2.47819 0.135909 0.701092 0.146214 0.0286562 0.416213
340 1 30.4663 42.4428 57.2199 3.06386 -0.128896 1.61957 0.126263 0.065018 0.105537
341 2 57.8232 32.2493 53.6865 -0.0162457 -0.377368 0.800823 0.22485 0.476338 -0.151515
342 1 20.3987 29.249 0.116581 -0.148855 1.19199 1.17294 0.117056 -0.349657 -0.197536
343 1 54.1359 18.7579 57.1469 -0.411413 -0.676035 0.362823 0.126847 -0.183666 0.1017
344 1 20.3531 25.159 58.3484 2.52144 -2.38976 -0.0816783 -0.546539 -0.405489 -0.14288
345 1 44.3139 32.1365 23.6204 0.631266 -1.9242 3.92445 -0.304778 0.329395 0.0430204
346 1 50.6651 3.03289 30.7425 -1.46606 2.99336 -0.311916 0.0223475 -0.0338681 0.122302
347 2 53.5953 43.1523 0.387012 -2.90704 0.0285381 -0.0365531 -0.180478 0.0113209 -0.27554