ITEM: TIMESTEP
22000009
ITEM: NUMBER OF ATOMS
11664
ITEM: BOX BOUNDS pp pp pp
-0.0158378 59.4158
-0.0158378 59.4158
-0.0158378 59.4158
ITEM: ATOMS id type x y z vx vy vz fx fy fz
1 1 33.5768 8.90694 26.3438 -2.14917 -1.76691 1.66728 -0.506246 -0.236326 0.331431
2 2 36.4596 38.5096 24.8655 -2.27936 1.11715 -0.554802 -0.141487 -0.0625679 -0.0943686
3 1 23.8436 5.08111 59.4267 -2.96529 0.993337 0.643129 -0.196478 0.434202 -0.338318
4 1 9.74966 54.0122 22.0264 1.08415 0.729847 1.99989 0.589125 0.465614 -0.0814839
5 1 15.1743 7.96528 13.035 1.00893 2.85878 -2.94431 0.183518 -0.475477 -0.514968
6 2 35.9346 39.0458 0.437164 -2.21967 -0.714444 -1.2323 -0.224702 -0.367253 -0.0218295
7 1 20.1618 1.8972 13.8001 0.566949 0.963982 -1.99272 -0.324267 0.415211 -0.107696
8 1 19.0756 28.8179 20.6363 2.99763 0.871509 -3.02402 0.272619 0.617378 0.44431
9 2 43.7829 59.1887 9.94068 1.1769 1.25852 2.20288 -0.112512 0.36217 -0.158811
10 2 54.9942 11.716 9.57582 0.852076 -1.86612 0.947898 -0.302641 -0.22155 0.158185
11 2 33.7978 26.8133 19.5279 -2.94589 1.0825 -1.35777 0.173655 -0.00420018 -0.0556481
12 2 22.9369 55.2767 16.115 -1.67547 -1.52172 0.326766 -0.598353 -0.25845 -0.240357
13 2 15.9706 22.5382 18.3196 0.376909 2.3407 1.66915 0.0407822 -0.646603 -0.255461
14 2 20.2456 5.39317 7.59159 0.491154 -1.46594 0.911074 -0.229744 -0.340699 -0.0782521
15 2 52.643 6.66787 36.6745 1.99965 -0.721681 -1.08388 0.592816 -0.137233 -0.266025
16 1 39.6678 42.5779 53.4611 -1.382 -1.40246 2.04544 -0.298455 0.261741 -0.189768
17 1 27.0473 23.1024 23.6865 0.712543 0.314634 -1.41959 0.2644 -0.115615 0.177926
18 1 0.689276 46.1613 47.05 2.02135 1.11178 -0.657836 0.749179 -0.798739 -0.243981
19 2 33.4775 10.9937 46.2832 0.837719 0.552911 2.88848 0.0198189 0.36844 -0.65243
20 2 1.58918 30.4732 55.3413 0.781143 1.97842 3.09207 -0.0200059 0.133743 0.140827
21 2 3.98007 23.1898 45.2439 -0.783737 -3.70177 -1.18172 0.621422 -0.460477 0.0557182
22 1 22.716 5.14226 14.9483 2.66242 -1.6058 -2.21454 0.290928 0.196981 -0.23902
23 1 51.8586 2.98748 28.4616 -5.85404 -0.932413 3.76957 0.626568 0.113816 -0.324655
24 2 22.5099 5.82528 11.41 0.243882 -1.1362 0.946694 -0.436086 -0.166004 -0.315935
25 1 58.9558 12.052 25.3735 -2.31347 -2.01666 -0.663766 0.0928269 -0.15014 -0.195979
26 1 39.0331 16.7148 22.6568 -0.381988 -0.176769 1.90513 0.224233 0.414667 0.323546
27 2 56.438 47.8778 16.6053 -0.894159 0.777298 -0.674177 -0.362628 -0.635707 -0.35756
28 2 31.5774 14.6104 25.0779 1.90097 -1.67911 -1.94654 -0.657328 0.216224 -0.0740698
29 2 35.5931 58.1226 50.0769 1.03223 -2.3185 -1.40366 -0.00377984 -0.718238 -0.427743
30 1 39.5612 24.791 23.3489 0.975849 -1.17322 0.554067 -0.232011 -0.222318 0.243897
31 2 56.4087 24.9124 12.3397 -0.929443 0.330299 -1.55408 -0.706595 -0.00785341 -0.136009
32 2 10.8248 32.2678 3.65622 -1.02185 -0.145809 -0.504662 -1.14425 -0.50347 -0.720929
33 2 36.7278 13.4085 41.0065 -1.61688 1.69274 -0.231103 0.218719 0.373858 -0.359112
34 1 23.2418 53.0357 32.1423 -0.685895 -2.37131 -0.184545 -0.301046 0.64664 0.332611
35 1 55.786 15.5315 31.2208 8.27218e-04 0.147692 1.93115 0.706943 -0.411323 0.08942
36 2 48.5865 49.7685 31.7002 3.35059 1.62698 -0.0131417 0.11092 0.173192 0.129219
37 1 33.003 17.3801 31.7379 -0.635592 -1.42866 0.669044 -0.0841994 -0.084283 -0.0578139
38 2 44.5955 15.1743 11.2258 1.87281 -1.66789 -0.338849 0.0586462 0.0096365 -0.0191277
39 1 53.8294 55.1774 18.4115 -0.732275 3.86147 -1.99553 -0.68701 -0.426524 -0.158339
40 1 29.3841 54.858 24.9896 1.54287 -0.369402 1.52706 0.532803 0.173458 0.541256
41 2 50.7118 51.896 55.1114 2.85435 -0.909231 1.7728 -0.378101 0.119294 0.0889806
42 1 44.358 2.94092 53.8625 -1.31034 -0.699049 -1.05523 0.0469331 -0.173501 -0.238623
43 1 5.26162 11.4837 45.4802 1.99123 0.575476 -1.36305 0.273095 -0.328927 0.0432533
44 2 42.2354 38.7959 33.5235 1.9548 -1.27815 -0.369124 -0.138315 0.169926 1.0651
45 2 44.7579 37.9288 31.9535 -1.00947 -0.580438 -0.539019 -0.427776 0.0948463 0.19377
46 1 41.4478 58.1127 55.7769 -0.850849 -1.98629 -0.0537957 -0.292077 0.375579 0.148703
47 1 48.2788 12.619 24.3855 1.71073 0.674175 1.22806 0.152933 -0.405443 0.0151442
48 2 40.1337 46.321 38.5482 -0.929214 -1.47433 -3.55393 0.989778 -0.522724 0.0373986
49 1 27.6019 51.9824 45.1923 -4.44448 1.27621 -0.735574 0.131556 0.333485 -0.27798
50 2 19.3697 47.7128 56.5693 -0.0367424 -1.05746 -0.723323 0.165294 0.529903 -0.11982
51 1 15.5298 2.65614 45.5797 -0.00322225 0.180401 -0.647426 0.0175132 0.163064 0.23705
52 1 18.6995 45.625 49.2458 -0.828687 -1.1032 1.36565 0.29491 -0.262418 -0.361933
53 1 10.7038 27.6103 6.67284 0.968097 -0.244832 1.13759 -0.268767 -0.28904 -0.219082
54 1 32.7677 12.9159 52.9583 0.744736 1.33652 0.721888 0.601575 -0.956313 0.49161
55 2 52.156 25.5617 29.3808 -0.956304 0.889888 2.48453 -0.509857 -0.302782 0.181589
56 2 22.1387 59.2837 56.4182 0.247704 1.42511 1.95116 -0.258128 -0.086245 -0.219908
57 1 45.7091 21.4972 43.857 3.39556 0.438278 2.16161 -0.485313 0.0887714 -0.0187335
58 2 37.5309 54.1051 55.449 2.2935 0.353464 -0.221849 0.647239 -0.589894 1.05403
59 1 20.2207 4.25973 2.70217 0.280573 -0.54577 0.6393 0.446981 -0.126628 0.0705156
60 2 10.5806 9.37477 17.8041 -1.82457 1.00221 -1.19495 0.00111962 0.326677 -0.358146
61 1 24.3971 39.6524 22.3043 1.67074 -0.614557 -3.66038 -0.292735 0.276945 0.353298
62 2 57.6227 26.6593 1.32639 -0.376766 0.690734 2.16127 -0.095449 -0.0154956 -0.277068
63 2 50.1148 22.8542 40.9419 -3.60496 -0.772354 2.94744 -0.0675906 -0.117173 -0.408769
64 2 5.68843 32.276 29.8802 1.85518 0.433242 2.62327 -0.474255 0.0678727 0.277238
65 1 27.5437 15.0572 13.5556 -0.293894 -2.53811 2.12938 -0.426074 0.145673 0.389413
66 1 37.5409 25.4422 31.232 0.217429 3.57782 -0.628145 -0.77234 -0.893699 -0.206768
67 1 35.9461 34.7883 52.6252 -5.33181 1.93051 0.264038 -0.0282445 0.353428 0.376669
68 2 43.8703 46.0571 57.8604 -0.438023 0.126275 1.98774 -0.445323 -0.453529 -0.408976
69 2 23.6001 55.7392 30.4563 1.26011 0.225448 -4.41753 0.102491 0.576244 -0.602671
70 2 16.342 17.3749 18.0674 3.01656 -2.72879 0.0994357 0.754678 -0.512693 0.0278368
71 1 20.3468 4.62076 10.1811 -2.78271 0.140305 0.642541 -0.447785 -0.0153622 -0.313256
72 2 5.02723 42.5896 12.1089 1.07312 0.47507 1.511 -0.098287 -0.0364553 -0.457872
73 2 43.0028 12.6639 50.3344 0.84567 -1.42004 -0.262047 0.143078 0.237707 0.247094
74 2 26.7195 22.0308 50.0325 -0.793429 -1.552 1.6335 -0.0203609 -0.180081 0.168078
75 2 29.7422 57.5497 31.8161 0.387197 -1.51772 1.37698 -0.654413 -0.734993 0.0189062
76 2 19.7648 55.2291 56.3907 -2.88145 -0.770428 0.343347 0.885929 1.04419 0.579576
77 2 13.0064 22.3938 27.8321 0.744967 3.21194 -2.05117 0.0820145 0.067083 0.267051
78 1 3.44019 19.7376 19.5402 0.838056 -2.08369 -5.13012 -0.204128 -0.55995 0.167627
79 2 51.9645 10.9262 29.5718 -1.25291 -2.17551 -1.75254 -0.660025 -0.297912 0.835445
80 1 10.5899 20.3001 23.8907 -2.88454 -2.27763 1.11221 0.25537 -0.401664 0.0566705
81 2 5.08109 45.7822 27.0201 -1.19314 1.66471 -0.168181 -0.818993 -0.616265 -0.28051
82 2 31.808 17.3859 56.1069 -1.72745 0.247631 1.63582 0.415917 0.228535 -0.0811301
83 2 7.05119 39.472 31.6772 -2.80932 -1.87499 -0.601586 0.0734362 -0.502466 0.447941
84 2 45.3116 27.8982 45.9502 1.9542 -2.33867 1.7951 -0.0695533 -0.122083 0.539271
85 2 54.3072 12.5656 52.6062 -0.345749 -0.683661 -0.0708811 -0.40862 0.578184 0.113075
86 2 6.96011 10.9232 3.60034 0.531653 -0.881832 5.14 0.241764 -0.585819 0.0449833
87 1 12.1003 11.8671 22.2214 1.29782 -0.145924 0.703524 -0.262996 0.281658 -0.0801935
88 2 22.0674 59.1107 34.1514 -2.44175 0.0204867 2.58923 -0.449343 0.119813 -0.978454
89 1 28.2672 12.7514 46.3321 1.69361 0.744974 -3.09234 0.690158 -0.00537448 -0.267532
90 2 35.2224 55.872 4.45983 -0.584123 -0.996515 -1.47982 -0.0246207 -7.72632e-04 0.24921
91 2 3.7956 49.3071 21.7429 -2.38559 -1.69003 1.28656 -0.728373 -0.277523 0.225118
92 1 42.3826 7.45476 8.4421 -0.260173 2.17323 -4.35556 -0.357438 0.0807142 -0.38788
93 2 6.26721 46.7571 18.5117 -2.17573 0.211879 -0.947442 -0.619372 0.0302007 0.399147
94 2 6.34682 26.2476 37.4298 2.62579 0.00322427 1.849 -0.100662 -0.0701008 -0.138814
95 1 26.1447 42.4758 52.4857 -2.97302 -2.66341 -1.48965 0.413234 -0.0815091 -0.0210721
96 1 7.91078 36.5114 27.7673 -2.10275 -2.10036 -4.71304 0.44534 -0.826701 -0.993933
97 1 0.313947 2.43369 58.0952 -1.98274 1.68495 -0.415519 -0.469044 0.146281 -0.0292703
98 1 18.4713 33.1407 1.4235 -1.83151 2.1049 -3.87116 0.262311 -0.0926313 0.390429
99 1 53.8031 1.93401 51.9075 1.84109 1.69465 -2.77067 -0.0344227 -0.340291 0.0873907
100 1 12.222 40.4633 57.2075 0.798039 -2.91487 2.08449 -0.0949995 0.0976829 0.278216
101 2 5.5247 44.6222 40.3943 1.77493 1.31123 3.97299 -0.52748 -0.165157 0.0106369
102 1 18.5858 6.52722 49.5 0.155377 -1.24777 -3.04116 0.571436 -0.46367 0.606349
103 2 40.7093 31.0468 34.7334 1.35118 -0.352075 0.139405 -0.104169 0.155294 0.707147
104 1 47.6652 24.0849 20.1624 -1.44216 -1.51645 7.076 0.211975 0.0989536 -0.109574
105 2 33.0565 39.9404 20.3807 1.71459 0.115542 -1.85132 -0.064127 -1.43473 0.0119374
106 1 30.771 0.384263 2.2067 3.2314 2.40904 2.7613 0.298492 0.227846 -0.240967
107 2 56.6677 16.8678 26.5768 -0.597811 1.01213 1.92236 0.673595 0.0908432 -0.313527
108 1 5.63234 27.9082 27.6491 0.696991 -1.30264 -0.42387 -0.43865 -0.376018 0.337399
109 2 32.1621 20.249 22.4309 0.82078 -1.85638 0.113595 -0.125743 -0.791856 0.0924427
110 2 37.5878 0.291674 30.3365 0.327333 1.13851 -1.10095 0.17979 0.221929 -0.182133
111 2 8.72985 55.6486 24.1044 0.23905 1.75029 -2.34591 0.302159 -0.230486 -0.174354
112 2 54.5051 30.6286 20.3237 0.209339 1.11433 0.398493 0.46766 -0.00565644 0.581368
113 1 20.4401 15.6012 52.5288 -1.68369 1.36068 2.04915 -0.362943 -0.115116 -0.132108
114 1 14.6728 13.0352 31.0845 -1.61446 -0.916126 -3.62921 0.23316 -0.276352 -0.377936
115 1 46.3805 47.4422 58.0085 3.07131 -4.95579 0.304054 -0.609082 1.11134 -0.534568
116 1 45.1383 42.8843 22.0587 -2.14708 -1.6444 0.221178 -0.365323 -0.287395 0.587882
117 1 23.6957 27.6599 31.8208 1.59204 -1.25857 0.754031 -0.0931806 -0.0112306 -0.201604
118 2 1.97916 47.1971 56.744 -0.283844 0.226845 -1.32231 0.367843 0.511577 -0.195255
119 1 52.4484 57.416 39.5786 2.03138 -1.66177 0.394344 0.18824 0.241592 0.870038
120 1 41.4857 0.236511 52.0589 -0.257591 0.483067 0.210597 0.452629 -0.0745001 0.844221
121 1 24.0289 41.2016 37.9884 1.14801 1.60796 -3.24808 -0.648004 0.282662 -0.12455
122 2 53.5764 36.2052 33.4837 -0.885316 -0.587124 1.09888 0.136542 0.249468 0.490654
123 1 2.85526 12.5038 42.1269 -0.944717 2.88684 -1.39817 -0.266732 0.267009 -0.0654807
124 2 39.3269 26.4769 46.8293 -0.166349 1.85771 -1.30514 0.0372383 -0.0699952 0.642832
125 1 50.983 14.3202 40.9187 -1.61357 0.0542908 -2.7382 -0.256933 -0.22735 0.13339
126 2 43.4877 39.324 36.4482 0.0973943 3.43909 1.78187 -0.349723 0.275977 0.188653
127 1 7.41467 40.9562 36.6684 -3.93193 3.90156 -1.0308 0.271802 0.118932 0.120592
128 1 11.7903 16.0119 22.5146 -0.599156 2.8935 0.0863737 0.415492 0.023873 0.0930824
129 2 18.1325 3.06973 7.4648 -3.16102 1.1986 -1.45434 -0.192025 -0.100211 -0.318607
130 2 55.6757 16.4036 48.2351 -4.8846 -0.292663 -2.28668 -0.130789 -0.713776 0.533507
131 2 20.5059 37.48 41.1242 -0.523338 2.17223 0.563029 0.452666 0.0138077 0.173085
132 2 34.5068 8.55897 9.28839 0.0276564 2.23519 1.79139 0.591504 -0.0546571 -0.260778
133 2 46.2405 21.3918 38.1863 1.54022 0.783984 -0.681012 -0.0272305 0.256007 -0.19763
134 2 58.6823 49.0307 18.2404 1.99171 2.98217 1.4346 0.304676 0.486675 0.0493806
135 2 16.4966 54.1808 16.0118 1.52578 2.88185 1.69095 0.194457 -0.401884 0.313498
136 1 53.0491 17.8626 14.7106 -0.403483 -1.48467 -0.28934 -0.097126 0.0772332 0.445539
137 2 5.07467 44.9111 2.30253 -0.643795 -1.1696 -1.54483 0.583102 0.0108449 -0.245585
138 2 42.8531 20.8372 18.1982 1.17415 -2.81995 2.08567 0.782379 0.0314245 0.0218219
139 1 10.9592 24.1648 42.2914 -2.39579 0.0894461 1.09639 0.0111246 -0.48186 -0.0802124
140 1 3.54033 8.04144 50.7903 -3.60892 -1.42622 -2.37107 -0.24119 0.210301 -0.276022
141 1 39.0539 42.6198 10.5586 0.740803 2.98523 1.58726 0.530662 0.675427 0.186063
142 1 16.662 31.2956 38.2296 -0.318723 1.01564 2.9999 -0.187268 -0.0993088 -0.574432
143 1 56.0396 19.5415 1.73555 0.180861 0.806835 -0.43926 0.615857 -0.139232 0.4584
144 1 45.0242 8.74617 1.97343 -1.88156 0.604266 1.5067 0.393936 -0.519344 0.211155
145 2 16.3477 27.2117 41.712 0.611555 2.3269 -2.25944 -0.141757 0.0273122 -0.0352292
146 2 48.079 25.1118 41.6939 1.17547 0.0326628 -2.52279 0.0963719 -0.369728 0.196263
147 1 36.3504 43.0615 50.007 2.28799 -3.38068 -1.92151 0.62187 0.338607 -0.157956
148 2 49.6016 49.7848 20.3516 -0.353978 2.46798 0.990628 -0.747789 0.3205 -0.493343
149 2 28.2606 48.2875 57.0094 -0.413552 -2.05658 -1.04183 0.303351 0.0542356 -0.137614
150 1 40.9641 12.3758 17.0466 -0.26904 -0.529011 -2.45795 -0.144559 0.0378381 -0.0203982
151 2 1.08545 30.4504 42.1914 -0.357777 1.46546 0.286084 0.345207 -0.364481 -0.174485
152 2 45.0522 29.5475 32.4961 -0.760114 1.08748 1.20575 -0.269814 0.0733473 -0.537111
153 2 2.12972 59.416 3.29349 2.89612 0.808487 1.76797 0.0546489 0.104262 0.503173
154 1 33.7603 6.58436 40.3455 -0.277332 -2.29732 -1.97148 0.371402 0.526271 0.276242
155 2 4.57035 56.8254 18.3488 -0.354915 0.0979457 0.316571 -0.506852 -0.104158 0.152502
156 2 5.5786 6.54501 55.9839 -0.496471 0.087207 1.58818 -0.0845345 0.407101 1.43824
157 2 51.3962 43.255 37.6404 3.49354 -0.51577 1.21245 -0.158138 0.511605 0.225498
158 1 26.9224 9.40287 24.5891 -0.367977 -1.07107 -1.43264 0.727615 0.257469 -0.475301
159 2 50.0222 19.8799 56.7404 -2.44963 0.996992 -2.03979 0.13574 0.48093 -0.474742
160 2 19.6701 55.2874 53.3697 -0.0376013 -1.59727 -1.75813 0.78502 0.0598521 -0.154691
161 2 2.37567 25.4041 52.4 -1.6931 -1.82594 -0.973111 -0.0725264 -0.162552 -0.240364
162 1 8.71392 16.168 27.1329 -2.57789 -4.15594 -4.16419 4.19817e-04 -0.15427 0.173974
163 2 5.20316 32.0844 1.47534 1.24969 -1.41427 0.699227 0.0738701 -0.374202 0.204594
164 1 28.452 40.5654 4.06354 1.26185 -0.243341 1.31165 -0.762296 -0.326126 0.0183061
165 1 30.0176 50.4678 25.9461 3.03169 1.24324 3.38751 0.371669 -0.145281 -0.111272
166 1 21.2483 45.5723 57.4125 -1.13216 2.05098 2.60807 -0.409005 -0.214003 -0.201939
167 1 20.8169 9.79934 8.78655 1.3699 2.42278 -1.72751 -0.647336 -0.193415 -0.692247
168 1 54.96 5.98792 2.43618 -1.1183 0.194535 -1.07184 0.261421 -0.347919 0.0893944
169 2 8.2021 6.31459 5.77519 -0.086908 1.00481 0.814789 0.22714 -0.1913 -0.324787
170 1 25.8558 30.9037 23.0515 0.771973 -2.23773 1.58902 0.321354 0.0335458 0.241704
171 1 53.2726 4.07136 16.9265 -0.787726 -0.409161 0.453645 0.0714086 0.22764 -0.781296
172 1 10.3433 37.4144 4.00185 -0.36438 0.602031 -1.60638 0.176594 -0.324062 0.0196395
173 2 47.1426 26.9995 27.5986 -0.398973 0.631534 1.99795 0.254457 -0.849708 0.152658
174 1 14.3831 14.393 14.9309 -1.98661 0.703975 -2.5012 0.507301 0.0976552 0.530887
175 2 25.0666 14.4222 18.5402 0.195887 -3.57091 -1.32774 -0.723755 0.0212172 -0.451845
176 2 7.99127 28.9383 50.23 1.34995 0.484297 -1.1103 0.0669495 -0.0394895 0.00526608
177 1 49.5376 4.56563 45.7272 0.942451 -1.5735 0.476686 -0.192591 0.0372423 0.605154
178 2 32.6074 51.6103 6.93621 -0.0612325 0.540885 -4.58232 0.269009 -0.193423 -0.702358
179 1 58.4861 9.50627 12.8871 3.87029 2.72909 -0.590117 -0.317581 0.080533 0.0498137
180 2 51.2091 53.7542 1.26797 0.653685 -1.10579 -0.304598 0.191534 -0.334855 0.0492665
181 2 9.59641 30.6732 13.6602 0.237373 -0.0771092 -0.928668 0.398044 0.113945 0.271138
182 1 38.479 50.8924 9.75266 0.850867 -0.158068 0.554035 -0.250838 0.394005 0.0597031
183 2 1.98701 40.8192 3.07121 -1.93177 -1.41735 0.718111 0.0861355 0.784569 0.093533
184 2 13.7212 21.9505 56.7615 1.26063 0.424719 -2.5388 -0.0102222 0.341384 -0.143499
185 1 26.8482 11.354 35.4614 1.42569 0.233645 2.26615 -0.550589 0.0119448 0.179877
186 2 52.0344 2.59512 47.2967 2.24602 1.74588 -2.00577 -0.0244864 0.351659 -0.490232
187 1 43.6584 22.0781 45.5263 3.22144 -1.16353 0.414566 0.127861 0.0688376 -0.220202
188 1 31.0533 9.48994 3.85317 1.0588 0.0688329 -2.93236 0.119439 -0.12721 0.701544
189 2 25.764 17.7469 52.61 0.684658 -2.32764 0.3608 0.130482 0.171239 0.203803
190 2 13.2796 41.0593 11.7557 -2.78494 1.11146 0.184379 0.439881 -0.524621 -0.1129
191 1 28.0485 46.5793 50.6612 -1.31453 -2.79585 0.358453 -0.146412 -0.0523942 0.129997
192 2 1.13327 10.4333 15.2328 3.44011 1.15433 -1.03553 0.726668 -0.704382 0.780174
193 1 57.2337 42.0792 33.3033 3.41554 -1.76309 0.64226 0.251322 -0.132486 0.290326
194 1 11.5048 50.1515 18.9992 0.822913 -1.87685 1.19579 -0.077285 0.725878 0.309033
195 1 51.8384 28.1462 42.4309 0.791469 -3.00311 -2.2989 -0.667838 0.00621843 0.119103
196 1 16.0699 56.0727 29.4895 1.74533 -1.28172 0.980254 0.81568 0.402614 1.03883
197 2 32.1711 0.523331 59.1473 0.508009 -0.0831155 0.886066 0.441598 -0.257549 0.462281
198 2 31.3845 51.7478 0.22916 1.39213 -1.14992 1.68652 -0.698103 -0.441138 0.199229
199 2 11.1642 24.875 11.2133 2.16848 0.271633 2.60136 0.0774636 0.0920454 -0.193153
200 1 56.1818 16.246 8.58433 -2.27517 1.32871 -0.882737 0.299535 1.2422 0.0789254
201 1 8.64593 56.0511 4.67634 4.3367 -0.208837 -2.63508 -0.878049 -0.31289 -0.348767
202 2 4.75411 12.0839 40.4447 -1.95189 -1.33461 -0.164592 -0.130824 0.291447 -0.161936
203 2 57.4915 11.8312 33.4355 -0.32 -1.11821 -0.500428 0.377641 -0.490363 0.163629
204 1 31.4217 40.2265 31.3292 -0.578209 -2.83951 2.65222 -0.0299599 -0.110724 0.15821
205 2 20.278 58.7545 23.8548 0.826069 1.62678 0.942604 -0.83471 0.316721 -0.334485
206 2 4.21263 34.6862 3.79947 1.06671 0.680878 0.677063 0.44848 -0.526582 0.159845
207 2 13.3511 51.6496 20.3487 1.33988 -4.33924 -1.3565 -0.0621841 0.167403 0.513414
208 2 53.4705 33.1811 12.8037 -0.386671 2.10413 -1.50854 0.167998 -0.508341 0.429734
209 1 19.9009 11.3834 57.2439 0.5887 -0.0803223 1.88999 0.369314 0.0132766 0.348782
210 2 2.80287 2.40028 50.6672 -0.0999601 0.166246 -1.48328 -0.698632 0.371608 -0.355557
211 2 34.3073 16.6055 18.1405 0.864182 0.489577 -1.9549 0.688455 -0.365413 0.252102
212 1 57.3375 31.2292 30.6906 -2.06808 0.859801 -1.70034 0.0406619 0.311217 0.149549
213 2 26.3811 14.967 28.4833 0.460446 -1.68734 -2.53549 0.386297 -0.309718 -0.00457703
214 1 40.7832 42.6814 26.3003 0.760368 1.82418 0.149076 0.0971186 -0.383355 -0.290222
215 2 51.8489 20.9015 25.6723 -1.14211 -0.304608 2.99558 -0.689758 -0.725547 0.0129322
216 2 14.8111 49.6754 22.4909 -1.73357 -2.09828 -1.03469 0.0569278 0.203805 0.254029
217 1 38.3775 39.9327 23.619 1.53063 1.48076 4.56996 -0.120871 0.33448 -0.684395
218 2 55.4649 20.8328 56.4306 0.343428 -0.31773 -1.45374 -0.833246 -0.204029 -0.138139
219 1 49.8349 28.2467 27.5843 0.388082 -1.49224 -0.0261769 -0.485919 0.789686 0.380741
220 1 41.0451 24.5657 45.2594 -1.84723 -3.0057 2.38381 0.11015 0.296282 -0.258969
221 1 27.594 49.9028 41.1184 -1.59935 0.862828 -0.69495 -0.461893 -0.216388 -0.201573
222 1 54.1056 34.6836 4.84699 1.35276 2.34364 -0.375321 0.0422748 0.835001 0.699882
223 1 42.5884 42.998 6.3189 -3.21724 3.35683 -0.171507 -1.02333 -0.132151 0.00121472
224 1 9.14043 47.1445 4.26121 1.108 -1.19023 0.675736 -0.152461 -0.168429 -0.0696275
225 2 33.7658 24.8779 21.601 1.65923 -0.217487 -1.04006 0.561608 -0.262869 0.627893
226 2 45.5155 7.04098 56.572 2.02486 1.47057 0.767927 -0.20711 0.326569 0.0145976
227 1 8.44487 8.35795 19.7066 -2.60565 0.466904 0.382533 0.154998 0.216252 -0.470158
228 2 0.420645 44.6189 50.1134 1.31005 -1.22888 -2.31802 0.318212 0.190635 0.240036
229 1 18.7608 10.9255 36.4086 -1.12084 1.05225 -0.740581 0.0781374 0.211419 -0.415099
230 1 48.7083 45.1285 32.7829 0.211781 3.73657 0.77208 -0.306631 -0.0755928 -0.323916
231 1 54.4869 25.7304 21.7449 -2.34234 1.75533 0.198139 -0.320681 0.126504 0.471397
232 2 49.1576 0.680568 30.6734 1.76608 -0.824045 -0.499756 -0.506391 0.396601 0.454101
233 2 33.5262 56.2092 7.3383 -0.766539 0.198261 -0.895388 -0.0245812 0.223513 0.201962
234 2 56.0659 54.0629 46.522 -0.233371 2.08484 -0.670498 0.762098 -0.0908408 -0.324218
235 2 54.8013 16.0831 10.8699 0.754364 1.21558 1.38096 0.152326 0.220342 -0.142153
236 2 6.75964 29.3706 33.2264 -0.172551 1.2908 -0.472486 0.324509 0.370384 -0.0612812
237 2 57.2522 14.9252 1.65168 -0.579975 -0.790978 0.736839 -0.218107 0.389632 0.292486
238 2 56.434 31.44 43.3428 -1.6453 1.48534 -0.413757 -0.522205 -0.313855 -0.239028
239 1 45.6741 16.7441 34.385 2.58465 -2.15657 -0.363253 0.192556 -0.698879 -0.053595
240 1 45.188 13.5142 55.7784 1.13598 1.42427 -0.295543 0.203936 0.76175 -0.581902
241 1 52.7543 18.6305 36.5269 -2.35812 -2.11801 2.37957 0.419066 -0.612426 0.341561
242 2 25.8198 26.0834 17.3892 -1.93693 -0.178941 -1.6849 0.23301 0.443606 0.934774
243 1 32.752 25.3606 39.2037 -0.52726 0.687573 0.459601 -0.891973 -0.463825 -0.619098
244 1 4.73053 32.6964 45.267 2.50851 2.23326 1.06445 0.328826 -0.503678 -0.211573
245 1 17.9971 44.4441 42.6661 1.37304 -1.76576 -2.0448 0.0700624 -0.234339 -0.198332
246 2 58.5618 22.7398 13.3135 -0.573477 2.8256 1.1832 -0.081723 -0.716925 -0.174209
247 2 11.5327 8.45197 26.0636 2.76927 1.90539 0.370818 -0.0197855 -0.0193856 -0.144496
248 1 15.4579 11.7608 25.8689 0.542194 1.49177 0.857244 0.397624 0.482949 -0.446272
249 2 14.0845 21.5657 20.5295 2.78061 -0.161094 0.102973 -0.239431 -0.570929 0.586557
250 1 48.0224 40.7546 55.3716 2.30725 -2.62308 -0.459259 -0.368563 -0.314365 -0.0146592
251 2 29.672 31.5834 8.54703 0.0950269 2.18139 1.99807 -0.323935 0.427137 -0.0552661
252 1 2.83494 2.41951 32.7841 -3.4766 -1.5494 4.8562 0.0356423 -0.0265242 -0.077812
253 2 32.4177 27.0048 16.7613 0.257295 2.50078 0.62191 -0.601288 -0.0283139 -0.0648332
254 2 34.8756 34.5909 7.66827 -2.43407 0.357028 1.18187 -0.247814 -0.500781 0.210772
255 2 30.277 35.5099 59.2169 -3.54988 1.27945 -1.58186 0.460055 0.81113 0.225753
256 2 48.6698 14.7607 14.5745 1.44706 2.86584 1.6743 0.28613 -0.00238393 -0.118191
257 2 17.3812 2.15235 43.5664 -0.910487 -1.71059 2.67109 0.255245 -0.0102943 -0.127442
258 1 45.8258 3.74417 36.9652 0.713398 -2.21056 5.00329 -0.532863 0.331969 0.512224
259 2 35.7638 31.1662 3.28185 0.512393 -0.0907093 0.475855 0.415889 -0.423546 -0.961251
260 2 3.55117 19.9265 57.4774 -1.98983 -1.81905 -1.7245 -0.30482 0.27548 -0.210303
261 1 52.2512 57.9137 14.8288 -0.0911667 0.200789 -0.801715 -0.128093 0.0351683 0.223685
262 2 33.5834 23.8671 4.56997 -1.84956 1.42913 1.07047 -0.531926 0.606311 0.223121
263 2 10.1442 10.9342 3.1508 1.79272 -1.82112 1.5231 0.260039 0.0317645 0.0214441
264 2 24.2774 22.924 51.6046 1.73289 2.54743 -0.372704 -0.164471 -0.0176179 -0.0523828
265 2 16.2087 45.5989 10.9723 2.21139 0.652667 -1.42356 0.412146 0.495738 0.0289212
266 2 36.3025 33.3876 40.8787 -0.0314959 0.807332 3.51128 0.215836 -0.185966 0.709284
267 2 32.3166 54.3667 19.8936 -0.78746 0.693896 2.08503 0.253688 -1.10329 -0.381153
268 2 7.82522 17.2664 41.8008 -0.0260769 -1.40106 -1.46441 0.159741 -0.313175 0.192717
269 1 19.5992 52.1218 16.9543 -1.83291 0.820547 1.43136 0.0303571 -1.57055e-04 0.293917
270 1 51.0484 21.6273 45.6666 1.24088 3.47867 -1.99009 -0.195166 -0.190553 -0.716024
271 2 6.40757 0.56228 26.5837 3.69701 -0.951834 1.4386 0.303654 -0.19025 0.119187
272 2 19.9578 23.042 9.81339 1.1227 -0.653626 -1.16668 -0.0374372 0.305735 0.18739
273 1 7.76122 27.5947 11.0063 -0.344432 2.76768 -2.10088 0.333151 0.0985433 -0.423068
274 2 2.3252 35.807 6.24777 -0.356125 -0.55673 -1.73853 0.223158 0.318704 -0.00210148
275 1 33.8752 52.8408 38.7684 -0.0246432 -0.0248661 4.05415 -0.660812 -0.17068 -0.357831
276 1 18.3324 31.7618 43.2871 -2.63843 -1.80102 2.29895 -0.196051 0.15602 0.120439
277 2 34.4921 19.4633 39.7101 0.960227 0.0696431 1.27105 -0.0460665 0.462801 0.476569
278 1 15.5424 22.1777 44.4419 -0.173898 1.82094 1.73459 0.0418661 0.90742 -0.233404
279 2 10.7584 1.21102 53.7749 0.344546 -1.82152 -1.69072 0.0558606 0.00311311 -0.287001
280 2 2.56028 59.1091 38.7982 -1.80594 -0.191153 -1.39364 0.0277687 -0.224565 0.26945
281 2 12.0569 29.3241 2.267 1.10348 0.344706 0.0250585 -0.171267 0.455821 -0.160766
282 2 32.1596 2.86967 12.0968 0.403129 0.877382 0.196918 -0.308809 0.402266 0.251593
283 1 51.5292 43.2729 2.67129 -1.86901 -0.270064 -2.36901 0.576631 -0.198765 -0.163048
284 2 42.9124 20.5605 35.6899 2.73811 0.590178 -1.55371 0.197366 0.129952 -0.0196258
285 1 58.5808 21.2304 18.6205 0.40235 -0.233247 -1.4371 1.37061 -0.574764 0.961894
286 1 3.81117 52.1497 47.6291 -1.15517 0.603648 1.0936 -0.542529 -0.111138 0.185235
287 2 23.8049 0.672924 8.96288 -0.0855569 0.236283 2.56503 -0.0235047 -0.244231 -0.381232
288 2 56.7846 30.4827 35.6101 2.19964 -3.00883 1.83471 0.745348 0.0110016 -0.0601399
289 2 16.0526 53.876 31.0306 -0.264293 2.12656 1.41902 0.114676 0.183654 0.285252
290 1 55.8778 13.482 46.2738 0.0171097 -3.03583 3.81655 -0.243802 -0.0211226 -0.349159
291 2 52.4543 6.65046 55.5912 -0.377478 -0.457832 1.69357 0.0945399 0.0369998 -0.116162
292 2 38.7 4.75468 7.84087 1.34097 0.353146 -0.405682 -0.377276 0.472199 -0.248599
293 2 2.87109 56.0591 39.9053 2.52506 -2.61815 -2.04769 -0.424483 0.481171 0.302522
294 2 6.54631 54.8886 31.7307 1.26219 -1.85752 0.305143 0.010402 0.515657 -0.626962
295 1 4.00265 33.8422 20.8021 1.71108 2.80352 -0.431777 -0.200304 -0.731803 0.487037
296 1 41.344 2.33245 20.5569 2.7322 0.904408 -0.736383 0.242863 0.120663 -0.487067
297 2 52.4335 28.5908 27.407 -2.63928 1.58485 -0.950896 -0.235224 -0.548634 0.180393
298 2 25.9591 51.1916 43.2974 -0.386582 0.0559092 -1.09006 0.570933 -0.68939 -0.699067
299 2 46.1084 20.5195 35.124 -1.02722 1.76692 5.45416 0.214972 -0.715342 0.241104
300 2 42.4291 47.7493 15.0203 -0.180108 -0.136834 2.04827 0.0439963 -0.294548 -0.097434
301 1 14.5515 47.3617 28.0694 0.191341 1.6577 0.792553 0.424124 -0.0550584 -0.281248
302 1 53.3256 13.259 27.1569 0.382009 1.18335 3.12202 -0.729848 0.637378 -0.314579
303 2 10.7552 51.3668 9.85436 -0.923498 -2.03272 -1.7029 0.323875 0.122696 0.182023
304 2 3.55694 8.22662 14.0345 1.64592 -2.55751 -0.886317 0.484316 -0.303747 0.385333
305 1 55.6821 41.0497 8.89031 -1.52828 0.044624 -0.354914 0.162575 0.0500531 -0.0835329
306 1 57.5642 17.7919 46.9198 1.621 1.30309 2.17147 0.679232 -0.0387579 0.626202
307 1 8.75653 48.4513 53.6798 0.862851 -3.61885 -0.647434 -0.530996 0.266681 -0.25376
308 1 50.6573 39.2109 22.1125 0.509998 2.35129 -0.018307 -0.494603 -0.124317 0.493744
309 1 1.49574 27.8208 18.2706 2.31793 3.97588 -3.99691 0.0516126 0.0110199 0.0236372
310 1 28.0044 40.6219 6.56765 1.12292 -1.55396 2.19271 0.190664 -0.494849 0.123576
311 1 4.28014 56.6015 32.5273 0.647506 -3.21342 -2.82398 0.0258471 -0.00511697 0.173708
312 2 5.6796 30.6295 50.658 -0.623563 -1.68229 -2.04192 -0.344145 -0.256448 -0.43865
313 2 9.74299 36.7205 6.67975 -3.61175 1.16257 -2.06448 -0.270683 -0.285633 -0.0230993
314 1 28.2069 56.2832 8.62195 0.412247 -0.982835 4.25403 -0.593207 0.698573 -0.427081
315 1 4.59041 52.8155 15.6377 0.591819 -0.609694 0.768459 -0.0187434 -0.0260308 -0.0425814
316 1 6.7173 3.278 37.456 -0.286014 -0.144496 -1.19387 0.178207 0.321303 -0.474156
317 2 30.0171 49.3856 9.37937 1.609 -0.440289 -2.73716 0.00226551 -0.734433 -0.242425
318 2 58.5596 50.2503 9.06862 -0.652892 -1.19454 0.602664 -0.302811 0.81318 -0.657496
319 2 47.5183 5.40908 13.2696 2.77198 -2.26472 1.28157 0.293381 -0.120639 -0.0946403
320 1 8.34452 53.5191 5.3915 -0.0770926 -4.4411 2.80402 0.26887 0.629127 0.23485
321 2 23.1551 57.0282 47.4986 2.62894 -1.29748 0.440428 0.218899 -0.317447 -0.132731
322 1 10.3487 31.4071 53.2079 -0.655441 -0.409991 2.42332 -0.0930102 0.157018 0.29775
323 1 38.6755 34.3157 13.955 1.8403 -2.93265 -1.8896 -0.194267 -0.359637 0.375153
324 2 57.4937 13.2284 4.89186 1.7936 0.671986 -2.55894 0.211023 0.0892178 -0.18674
325 1 17.7247 3.9398 48.9287 0.282772 -1.62056 1.16798 0.113006 -0.117782 0.156645
326 2 26.7846 2.41591 57.3761 -1.01715 0.703413 -1.4884 0.161029 -0.00769216 -0.0420679
327 2 27.0092 40.8583 21.9036 -1.82223 -0.512933 -1.81001 0.190571 0.487644 0.132206
328 2 32.767 31.9745 31.6205 1.13533 3.85037 1.35071 -0.0148078 -0.49689 0.0480334
329 2 39.4951 3.9792 50.7154 -3.69051 -1.17754 0.858143 -0.195958 0.0517633 0.178257
330 2 48.7568 52.6419 7.06444 -1.08844 -1.92262 0.872379 -0.47883 0.233346 0.160827
331 2 36.3227 16.5169 24.4701 1.20324 2.95139 1.43799 0.722128 0.956285 -0.881934
332 2 2.45213 17.9567 34.1072 -0.536744 1.36765 0.655064 0.365573 -0.133082 -0.33188
333 2 47.9367 2.75198 11.4656 -1.51616 0.294307 2.64416 -0.299844 0.14466 -0.518312
334 1 55.7359 12.7709 2.32639 2.95376 -1.59397 -2.26639 -0.406953 -0.0118635 0.230248
335 2 33.0794 55.6355 50.3556 -0.503662 -0.710957 -0.995776 0.15257 0.310027 0.513799
336 2 17.8973 13.0755 34.807 1.41635 -0.47286 -0.0353343 -0.069511 0.275943 -0.182005
337 1 8.72502 4.13748 4.03303 3.34599 3.08995 0.620311 0.365874 -0.0821307 0.359825
338 1 11.2586 46.1278 28.2873 3.49328 1.4581 -0.052906 0.105965 0.449333 -0.0513594
339 2 11.7691 24.4787 51.948 2.44153 0.127827 0.610621 0.195448 0.0474981 0.43788
340 1 30.4602 42.4435 57.2176 3.01732 -0.147701 1.58209 0.176078 0.0590278 0.13907
341 2 57.8242 32.2503 53.6857 -0.0606939 -0.475486 0.829931 0.195481 0.452213 -0.125319
342 1 20.3988 29.2465 0.113195 -0.190368 1.29623 1.23107 0.1566 -0.338588 -0.187021
343 1 54.1376 18.7588 57.1471 -0.451229 -0.61986 0.33245 0.135989 -0.185418 0.0978665
344 1 20.3476 25.1635 58.3494 2.68369 -2.26164 -0.0437874 -0.525703 -0.435094 -0.106592
345 1 44.313 32.1405 23.6123 0.724307 -2.02367 3.9042 -0.308949 0.328504 0.0849034
346 1 50.6687 3.02601 30.7432 -1.47 3.00046 -0.346047 0.00568355 -0.0170272 0.10295
347 2 53.6019 43.1527 0.386055 -2.86351 0.0269531 0.0218412 -0.225284 0.00361058 -0.27656
348 2 23.1887 0.328194 28.4895 1.8583 2.34284 -0.134229 0.157174 -0.171671 -0.124024