ITEM: TIMESTEP
22000008
ITEM: NUMBER OF ATOMS
11664
ITEM: BOX BOUNDS pp pp pp
-0.0179017 59.4179
-0.0179017 59.4179
-0.0179017 59.4179
ITEM: ATOMS id type x y z vx vy vz fx fy fz
1 1 33.5813 8.90896 26.3403 -1.99106 -1.69232 1.56521 -0.529064 -0.249859 0.33608
2 2 36.4646 38.5079 24.8662 -2.24628 1.12883 -0.534244 -0.161793 -0.0525111 -0.0977195
3 1 23.849 5.07754 59.4274 -2.89831 0.863428 0.738965 -0.236045 0.418692 -0.294899
4 1 9.74628 54.0126 22.0218 0.901637 0.583461 2.02331 0.610062 0.496598 -0.0786241
5 1 15.1713 7.95791 13.0396 0.947885 2.99148 -2.77022 0.215696 -0.407079 -0.623237
6 2 35.9394 39.0478 0.437591 -2.16964 -0.639822 -1.2253 -0.239082 -0.335446 -0.0391532
7 1 20.1599 1.89346 13.803 0.661709 0.835841 -1.95977 -0.301642 0.426121 -0.103555
8 1 19.0689 28.8163 20.6419 2.91266 0.684716 -3.15462 0.278312 0.610609 0.424916
9 2 43.7815 59.1883 9.93487 1.19959 1.18049 2.2331 -0.107059 0.370529 -0.136245
10 2 54.9941 11.7184 9.57256 0.915994 -1.81438 0.912137 -0.305416 -0.259914 0.17603
11 2 33.8041 26.8109 19.5299 -2.97527 1.08028 -1.34461 0.116558 0.0206548 -0.0631069
12 2 22.9396 55.2815 16.1134 -1.54663 -1.46587 0.377352 -0.613078 -0.263367 -0.239411
13 2 15.9689 22.5329 18.3154 0.365807 2.47374 1.71943 0.0626312 -0.621425 -0.227052
14 2 20.2439 5.39434 7.58822 0.538618 -1.39306 0.925529 -0.22119 -0.342329 -0.0622736
15 2 52.6408 6.66768 36.6771 1.86705 -0.688242 -1.02992 0.65274 -0.175968 -0.239735
16 1 39.6712 42.5817 53.4586 -1.28582 -1.48133 2.09936 -0.331154 0.261964 -0.171405
17 1 27.0458 23.1013 23.6889 0.629765 0.348017 -1.46987 0.278831 -0.10522 0.157474
18 1 0.683447 46.16 47.0525 1.79189 1.35128 -0.582214 0.756509 -0.782289 -0.25227
19 2 33.4761 10.9914 46.2785 0.830951 0.473212 3.02293 0.0406614 0.382957 -0.631282
20 2 1.58566 30.4694 55.337 0.785695 1.94904 3.05795 -0.0263216 0.135869 0.168932
21 2 3.97998 23.1966 45.2474 -0.912654 -3.59784 -1.18916 0.601041 -0.50688 0.0195309
22 1 22.7103 5.14382 14.9516 2.57018 -1.66443 -2.13808 0.308928 0.193954 -0.258195
23 1 51.872 2.98752 28.4539 -6.02912 -0.960691 3.86351 0.543956 0.0752037 -0.305191
24 2 22.5088 5.82586 11.4068 0.335207 -1.0995 1.01245 -0.4286 -0.176294 -0.309868
25 1 58.9625 12.0548 25.3745 -2.33878 -1.9668 -0.603158 0.0807385 -0.172454 -0.201344
26 1 39.0346 16.7143 22.6526 -0.447522 -0.301914 1.80349 0.20861 0.410262 0.340415
27 2 56.4416 47.8774 16.6057 -0.813747 0.910263 -0.598067 -0.394078 -0.62501 -0.359383
28 2 31.5736 14.6127 25.0814 2.03738 -1.71947 -1.92789 -0.640617 0.172568 -0.0941868
29 2 35.5914 58.1291 50.081 1.02937 -2.1621 -1.31088 0.0265387 -0.751096 -0.443786
30 1 39.5598 24.793 23.3474 1.04382 -1.10727 0.476793 -0.218587 -0.208671 0.263537
31 2 56.4122 24.9114 12.3415 -0.775638 0.331873 -1.52505 -0.744042 -0.00842019 -0.131984
32 2 10.8253 32.2682 3.65526 -0.777063 -0.0362286 -0.351015 -1.16639 -0.532218 -0.729991
33 2 36.7316 13.4041 41.0076 -1.65685 1.61049 -0.153754 0.166012 0.396946 -0.371404
34 1 23.2426 53.0422 32.1429 -0.595024 -2.56655 -0.289515 -0.295578 0.646435 0.35944
35 1 55.788 15.5301 31.217 -0.213995 0.269741 1.90252 0.708237 -0.393136 0.0935026
36 2 48.5811 49.7667 31.7004 3.32087 1.58611 -0.0379972 0.156075 0.206435 0.105896
37 1 33.0045 17.3821 31.7367 -0.609995 -1.40019 0.685817 -0.0825654 -0.0991082 -0.0546393
38 2 44.5928 15.1766 11.2252 1.85738 -1.66792 -0.335501 0.079422 -0.00232415 -0.0111087
39 1 53.8323 55.1713 18.4147 -0.52068 3.98741 -1.9439 -0.704775 -0.414454 -0.175953
40 1 29.3811 54.8605 24.9864 1.37659 -0.421306 1.36054 0.55804 0.169553 0.551253
41 2 50.7074 51.8994 55.1097 2.92744 -0.932953 1.75012 -0.325147 0.108872 0.118089
42 1 44.3616 2.94041 53.8662 -1.32159 -0.645543 -0.981495 0.0310501 -0.176933 -0.244019
43 1 5.25603 11.4812 45.484 1.90716 0.673979 -1.37401 0.27491 -0.321666 0.0329591
44 2 42.2324 38.7991 33.5247 1.98146 -1.31228 -0.593019 -0.122009 0.158159 1.05383
45 2 44.7609 37.9305 31.9548 -0.918125 -0.599761 -0.577792 -0.431858 0.0903304 0.175166
46 1 41.4502 58.1188 55.7788 -0.759634 -2.09422 -0.0988566 -0.306328 0.341257 0.148302
47 1 48.2767 12.6163 24.3826 1.6603 0.79041 1.22003 0.174262 -0.362253 0.0341586
48 2 40.1365 46.325 38.5559 -1.13635 -1.3607 -3.55836 0.973039 -0.545706 0.0194378
49 1 27.6106 51.9814 45.1948 -4.47902 1.17436 -0.648081 0.109018 0.333729 -0.296238
50 2 19.369 47.7163 56.5726 -0.0710815 -1.16886 -0.696339 0.159606 0.528094 -0.132333
51 1 15.5288 2.65395 45.5822 -0.0136347 0.128738 -0.719201 0.0510903 0.176743 0.237674
52 1 18.7005 45.6282 49.2443 -0.916193 -1.0234 1.47445 0.28398 -0.260023 -0.358746
53 1 10.7004 27.6106 6.6689 1.0445 -0.157771 1.19993 -0.237374 -0.283769 -0.194868
54 1 32.7666 12.9118 52.9587 0.565958 1.62364 0.572321 0.573979 -0.93906 0.491576
55 2 52.1594 25.5596 29.3759 -0.849747 0.95111 2.44329 -0.493842 -0.279941 0.197945
56 2 22.1376 59.2829 56.4161 0.303227 1.4419 1.99452 -0.267997 -0.0785251 -0.198365
57 1 45.7033 21.4958 43.8537 3.54017 0.408555 2.16185 -0.477275 0.10575 0.0108682
58 2 37.527 54.106 55.4515 2.15297 0.475194 -0.447294 0.672095 -0.562797 1.07894
59 1 20.2196 4.25902 2.69904 0.146099 -0.505202 0.617191 0.438073 -0.13903 0.0732632
60 2 10.5829 9.37143 17.8056 -1.82269 0.930338 -1.11906 -0.0112397 0.348808 -0.354481
61 1 24.3933 39.6544 22.3113 1.75506 -0.694878 -3.75935 -0.267637 0.253987 0.309389
62 2 57.6254 26.6577 1.32004 -0.356555 0.693097 2.21664 -0.09411 -0.00975511 -0.255633
63 2 50.1234 22.8553 40.9367 -3.58375 -0.745769 3.02942 -0.117817 -0.130999 -0.378856
64 2 5.68296 32.2753 29.875 1.95071 0.420795 2.56534 -0.436925 0.0480183 0.259607
65 1 27.544 15.0613 13.5503 -0.16229 -2.57679 2.00792 -0.440034 0.116567 0.404507
66 1 37.5408 25.4345 31.2333 0.450011 3.84138 -0.563389 -0.760479 -0.853023 -0.217989
67 1 35.9572 34.7849 52.6264 -5.31436 1.82272 0.150387 -0.0711137 0.351002 0.371256
68 2 43.8721 46.0579 57.8583 -0.341107 0.222127 2.06867 -0.469374 -0.453479 -0.364721
69 2 23.5972 55.7407 30.465 1.2348 0.10069 -4.28312 0.131625 0.602649 -0.64992
70 2 16.3352 17.3794 18.0664 2.85348 -2.61493 0.0944693 0.774926 -0.552641 0.0187131
71 1 20.3515 4.61874 10.1783 -2.64035 0.14321 0.735594 -0.481851 -0.00418617 -0.301632
72 2 5.02335 42.5895 12.1046 1.09216 0.481429 1.60494 -0.0862782 -0.0256801 -0.436889
73 2 43.0021 12.6656 50.3365 0.811123 -1.46648 -0.314084 0.180088 0.207454 0.246121
74 2 26.7209 22.0334 50.0306 -0.786293 -1.5131 1.59586 -0.0437912 -0.181268 0.181043
75 2 29.7413 57.5545 31.8135 0.523201 -1.35726 1.37204 -0.633406 -0.776115 0.0220341
76 2 19.77 55.2326 56.3919 -3.06517 -0.991512 0.218711 0.8636 1.04984 0.597664
77 2 13.0038 22.3868 27.8361 0.725994 3.19072 -2.10253 0.0942856 0.120155 0.227345
78 1 3.43663 19.7409 19.5498 0.898939 -1.90916 -5.17285 -0.199402 -0.583685 0.12885
79 2 51.9685 10.9292 29.5755 -1.10948 -2.11103 -1.92715 -0.691147 -0.302723 0.823235
80 1 10.5944 20.3039 23.8881 -2.95632 -2.15169 1.09273 0.225922 -0.421304 0.0684317
81 2 5.0816 45.7799 27.0202 -1.022 1.79197 -0.112326 -0.794427 -0.594258 -0.247002
82 2 31.8117 17.3846 56.1054 -1.81356 0.200815 1.64861 0.405718 0.21317 -0.0466659
83 2 7.05525 39.4763 31.6786 -2.81989 -1.76607 -0.695472 0.038348 -0.519687 0.442473
84 2 45.3088 27.9027 45.9479 1.96602 -2.30817 1.67684 -0.0504765 -0.1565 0.571547
85 2 54.3095 12.5659 52.6079 -0.257604 -0.804176 -0.094952 -0.423523 0.564407 0.114863
86 2 6.95752 10.9235 3.58826 0.479418 -0.757041 5.1249 0.249985 -0.590624 0.0762046
87 1 12.0964 11.8662 22.2194 1.37738 -0.230941 0.722539 -0.264944 0.278835 -0.0471322
88 2 22.0716 59.1127 34.1463 -2.34421 -0.0039484 2.79249 -0.462818 0.111184 -0.954717
89 1 28.2639 12.7488 46.3394 1.48181 0.744405 -3.00146 0.700098 0.00694447 -0.322057
90 2 35.224 55.8758 4.46109 -0.578554 -0.99541 -1.53152 -0.0255877 -0.00549117 0.245897
91 2 3.79841 49.3118 21.7398 -2.22792 -1.6296 1.23587 -0.752723 -0.286879 0.248897
92 1 42.3839 7.4489 8.44921 -0.155128 2.14017 -4.22983 -0.333803 0.130715 -0.427644
93 2 6.26981 46.7579 18.5129 -2.04269 0.20495 -1.03136 -0.629569 0.0344386 0.398463
94 2 6.33993 26.2473 37.4266 2.64312 0.0197049 1.87553 -0.0743101 -0.0857707 -0.119864
95 1 26.1505 42.482 52.4903 -3.09525 -2.63256 -1.48096 0.400675 -0.113941 -0.031828
96 1 7.91361 36.5159 27.7763 -2.23769 -1.84363 -4.39694 0.449757 -0.858408 -1.07465
97 1 0.315728 2.42847 58.098 -1.83808 1.63923 -0.408267 -0.478164 0.149985 -0.0172817
98 1 18.4743 33.1367 1.42939 -1.90492 2.13124 -3.97963 0.226662 -0.087031 0.335475
99 1 53.8011 1.92859 51.9147 1.8501 1.79629 -2.79347 -0.0303473 -0.334213 0.0709255
100 1 12.2191 40.4699 57.2053 0.827488 -2.93897 1.99872 -0.101334 0.0696056 0.280751
101 2 5.51936 44.6206 40.3871 1.88183 1.34702 3.96288 -0.490995 -0.178829 0.0682889
102 1 18.5849 6.52796 49.5076 -0.0190446 -1.1038 -3.21764 0.577148 -0.481098 0.565171
103 2 40.7074 31.0476 34.7336 1.37122 -0.385177 -0.00996475 -0.091051 0.159233 0.704859
104 1 47.6694 24.0875 20.1475 -1.50517 -1.54308 7.09508 0.207357 0.0808843 -0.0368403
105 2 33.0533 39.9405 20.3837 1.72714 0.417905 -1.85128 -0.0617902 -1.42521 -0.00445996
106 1 30.7647 0.377479 2.1992 3.13313 2.33411 2.82955 0.33942 0.258664 -0.216726
107 2 56.6709 16.8649 26.5727 -0.739234 0.990065 1.98567 0.666362 0.113606 -0.293331
108 1 5.62914 27.9106 27.6499 0.828218 -1.18663 -0.527192 -0.427878 -0.384449 0.344495
109 2 32.1606 20.2519 22.4302 0.849196 -1.68485 0.0929626 -0.146433 -0.822521 0.102206
110 2 37.5877 0.287402 30.3387 0.289157 1.08953 -1.06153 0.17986 0.23651 -0.186052
111 2 8.72798 55.6468 24.1087 0.174549 1.79539 -2.304 0.306828 -0.203385 -0.212098
112 2 54.5065 30.6264 20.3224 0.110854 1.11453 0.276187 0.462837 -8.70816e-04 0.573612
113 1 20.4427 15.5975 52.5263 -1.56891 1.3937 2.08706 -0.388237 -0.106372 -0.123631
114 1 14.675 13.0358 31.0917 -1.68181 -0.829755 -3.50994 0.21523 -0.289954 -0.397149
115 1 46.3753 47.4537 58.0097 3.24192 -5.26745 0.455208 -0.523851 0.956304 -0.462078
116 1 45.1435 42.8884 22.058 -2.03186 -1.55066 0.0441169 -0.387424 -0.325318 0.577898
117 1 23.6921 27.6623 31.8194 1.61771 -1.25175 0.813426 -0.0806009 -0.0300584 -0.19188
118 2 1.97788 47.198 56.7485 -0.36181 0.120194 -1.27659 0.370678 0.496071 -0.231513
119 1 52.446 57.4213 39.5788 1.97246 -1.73376 0.128507 0.193943 0.237475 0.880064
120 1 41.4872 0.233476 52.0603 -0.400527 0.509398 -0.0496301 0.489749 -0.100373 0.869461
121 1 24.026 41.1992 37.9955 1.33937 1.52345 -3.19964 -0.616031 0.269409 -0.185111
122 2 53.5799 36.2068 33.4818 -0.910978 -0.63872 0.995473 0.109867 0.240941 0.482632
123 1 2.85521 12.4969 42.1305 -0.86408 2.80314 -1.3743 -0.261715 0.275955 -0.0876779
124 2 39.3279 26.4729 46.8333 -0.174432 1.86843 -1.43746 0.039902 -0.0391566 0.613924
125 1 50.9876 14.319 40.925 -1.53242 0.122245 -2.77375 -0.27292 -0.220472 0.108839
126 2 43.4883 39.3178 36.4452 0.172367 3.3722 1.74043 -0.359704 0.342161 0.195757
127 1 7.42107 40.9492 36.671 -4.00854 3.86539 -1.0645 0.244341 0.107943 0.104426
128 1 11.7904 16.0052 22.514 -0.719662 2.87765 0.057672 0.380118 0.0720363 0.0957428
129 2 18.1379 3.06547 7.46609 -3.113 1.21361 -1.38481 -0.248877 -0.0467181 -0.332836
130 2 55.6872 16.4032 48.2411 -4.85158 -0.144317 -2.39571 -0.160941 -0.687906 0.507239
131 2 20.5065 37.4762 41.1239 -0.617872 2.16647 0.525282 0.443543 0.0315811 0.181519
132 2 34.5072 8.55302 9.28333 -0.0922777 2.23843 1.84882 0.542599 0.0146442 -0.289906
133 2 46.2386 21.3897 38.1882 1.545 0.728999 -0.63804 -0.0243947 0.260694 -0.205894
134 2 58.6804 49.0262 18.2367 1.92249 2.87317 1.42149 0.341505 0.53155 0.0686549
135 2 16.4927 54.1767 16.0076 1.48114 2.96243 1.62192 0.221295 -0.372264 0.332258
136 1 53.0515 17.8648 14.7102 -0.371888 -1.50621 -0.424924 -0.109828 0.0690025 0.448493
137 2 5.07437 44.9145 2.30367 -0.765124 -1.17184 -1.48977 0.567015 0.0152406 -0.26859
138 2 42.8518 20.8422 18.1932 1.00749 -2.8226 2.07704 0.788881 0.00554938 0.0510648
139 1 10.9627 24.1641 42.29 -2.39232 0.235991 1.11891 -0.0269722 -0.483792 -0.0713923
140 1 3.54565 8.04285 50.7964 -3.5257 -1.48669 -2.28402 -0.296508 0.192239 -0.290501
141 1 39.0532 42.615 10.5541 0.576621 2.77542 1.52825 0.54875 0.698032 0.198055
142 1 16.6617 31.2937 38.2241 -0.263197 1.04064 3.16787 -0.177594 -0.0683936 -0.540898
143 1 56.0412 19.5391 1.73463 -0.00566834 0.849243 -0.577789 0.612411 -0.142501 0.455473
144 1 45.0291 8.74335 1.96855 -1.99645 0.761594 1.44041 0.368379 -0.518854 0.221129
145 2 16.3455 27.2069 41.7174 0.64055 2.31717 -2.24669 -0.135023 0.0549518 -0.0757903
146 2 48.0779 25.1114 41.6998 1.15012 0.1117 -2.55907 0.138453 -0.377863 0.157477
147 1 36.3465 43.0693 50.0122 2.09616 -3.47769 -1.87115 0.63516 0.310325 -0.168235
148 2 49.6035 49.7813 20.3489 -0.194489 2.39595 1.09348 -0.75902 0.350247 -0.483494
149 2 28.2614 48.2929 57.0134 -0.473836 -2.0643 -1.01106 0.268493 0.0273946 -0.14892
150 1 40.9654 12.3757 17.0507 -0.223202 -0.537852 -2.44649 -0.156622 0.0219548 -0.047949
151 2 1.08425 30.4474 42.1917 -0.432875 1.54274 0.324682 0.366498 -0.372545 -0.191741
152 2 45.0547 29.5454 32.4938 -0.703623 1.07128 1.3165 -0.261227 0.0752011 -0.515325
153 2 2.12202 59.4165 3.28822 2.88012 0.785131 1.65832 0.0844773 0.113227 0.526411
154 1 33.7612 6.58751 40.3503 -0.39037 -2.4549 -2.05298 0.374073 0.518524 0.266385
155 2 4.56921 56.8271 18.3474 -0.246702 0.119122 0.282261 -0.515033 -0.0965156 0.170644
156 2 5.5779 6.54332 55.9829 -0.477797 -0.00176881 1.27506 -0.0899807 0.433979 1.51634
157 2 51.3907 43.2571 37.6385 3.52204 -0.622057 1.16321 -0.12609 0.495719 0.235116
158 1 26.9232 9.40368 24.5914 -0.58261 -1.15024 -1.28585 0.687402 0.267251 -0.487551
159 2 50.0285 19.8773 56.7463 -2.47513 0.893648 -1.93646 0.115728 0.492206 -0.4938
160 2 19.6697 55.2924 53.3749 -0.203359 -1.60712 -1.72244 0.782713 0.0400194 -0.175394
161 2 2.37714 25.4074 52.4035 -1.67459 -1.78753 -0.923293 -0.0953633 -0.193014 -0.22668
162 1 8.71762 16.1753 27.1411 -2.57287 -4.09998 -4.20595 -0.0259379 -0.202237 0.113316
163 2 5.19898 32.0874 1.47203 1.23203 -1.33256 0.655584 0.0878366 -0.392569 0.205197
164 1 28.4491 40.5666 4.05915 1.48963 -0.149751 1.29959 -0.741988 -0.289704 0.0573376
165 1 30.0116 50.4668 25.9391 2.91539 1.28803 3.41255 0.385603 -0.153394 -0.0635972
166 1 21.2498 45.5693 57.4091 -1.00621 2.10958 2.66718 -0.417384 -0.178052 -0.195121
167 1 20.8134 9.79305 8.78835 1.56388 2.47966 -1.51068 -0.634547 -0.188403 -0.731116
168 1 54.964 5.98578 2.43646 -1.1962 0.298367 -1.09826 0.255025 -0.336665 0.0877903
169 2 8.20083 6.31091 5.77183 -0.133694 1.04432 0.88068 0.215678 -0.186515 -0.301772
170 1 25.8541 30.9082 23.0479 0.674532 -2.24718 1.51138 0.3183 0.0352742 0.265133
171 1 53.2758 4.07047 16.9244 -0.808304 -0.475993 0.687408 0.0664569 0.213822 -0.759988
172 1 10.3427 37.4136 4.00328 -0.419475 0.699325 -1.61025 0.187424 -0.318645 0.0105568
173 2 47.1447 26.9979 27.5944 -0.452678 0.809806 1.96312 0.255112 -0.838872 0.168316
174 1 14.3862 14.3905 14.9351 -2.14117 0.67359 -2.6567 0.516749 0.100449 0.500828
175 2 25.0658 14.4283 18.542 0.34978 -3.5682 -1.23109 -0.732433 -0.031819 -0.456592
176 2 7.98708 28.9373 50.2336 1.33373 0.490354 -1.1095 0.0807158 -0.0198209 -0.00811433
177 1 49.537 4.56704 45.7276 1.00141 -1.58392 0.287219 -0.198575 0.0360282 0.641601
178 2 32.6078 51.6107 6.94364 -0.117674 0.583339 -4.42622 0.265015 -0.210338 -0.754673
179 1 58.4803 9.49943 12.8872 3.96073 2.70045 -0.601216 -0.289539 0.100134 0.0250297
180 2 51.2094 53.758 1.26661 0.611418 -1.03479 -0.314695 0.205448 -0.332036 0.0475038
181 2 9.59463 30.6734 13.661 0.152993 -0.0993578 -0.983682 0.39895 0.0967844 0.253033
182 1 38.4779 50.8943 9.75018 0.924375 -0.278063 0.535044 -0.235898 0.39695 0.063784
183 2 1.98896 40.823 3.06794 -1.94622 -1.58019 0.697971 0.0586324 0.761387 0.0939167
184 2 13.7175 21.9491 56.7684 1.26091 0.350537 -2.50316 0.00231211 0.358367 -0.182868
185 1 26.845 11.3523 35.4573 1.59094 0.230924 2.20539 -0.542186 0.00529724 0.213778
186 2 52.0314 2.58982 47.3019 2.24526 1.6709 -1.89808 0.0222306 0.350106 -0.519767
187 1 43.6529 22.0799 45.5265 3.17665 -1.18251 0.481288 0.157786 0.059588 -0.22056
188 1 31.0513 9.48836 3.85745 1.01747 0.108807 -3.13361 0.149781 -0.136326 0.632792
189 2 25.7624 17.7508 52.6109 0.655404 -2.36054 0.317985 0.143301 0.14968 0.199588
190 2 13.2841 41.0577 11.754 -2.87466 1.22112 0.207158 0.420333 -0.517089 -0.103296
191 1 28.051 46.586 50.662 -1.26647 -2.77535 0.320051 -0.166347 -0.0744866 0.121932
192 2 1.12457 10.4295 15.234 3.28177 1.29814 -1.19811 0.756319 -0.660522 0.761665
193 1 57.2289 42.0836 33.3024 3.33102 -1.71586 0.548803 0.295454 -0.173488 0.323458
194 1 11.5018 50.1569 18.9961 0.843711 -2.09487 1.0983 -0.062137 0.715863 0.329651
195 1 51.8382 28.1521 42.4364 0.992564 -2.99741 -2.32783 -0.659227 -0.0349421 0.0781652
196 1 16.0657 56.0773 29.4878 1.48621 -1.40828 0.654616 0.886192 0.434883 1.10351
197 2 32.1703 0.521417 59.1477 0.414442 -0.0288253 0.78814 0.441132 -0.255524 0.460084
198 2 31.3817 51.7515 0.223783 1.53789 -1.05518 1.64219 -0.686204 -0.449984 0.212943
199 2 11.1586 24.8741 11.2067 2.14876 0.250799 2.63856 0.0999325 0.103844 -0.169542
200 1 56.1883 16.2428 8.58465 -2.36271 0.953172 -0.90349 0.283848 1.22787 0.0603737
201 1 8.63553 56.0532 4.67976 4.59338 -0.116885 -2.52268 -0.825587 -0.292249 -0.383995
202 2 4.75625 12.0854 40.4457 -1.92044 -1.39316 -0.130203 -0.158348 0.267899 -0.162597
203 2 57.4941 11.8321 33.4368 -0.398922 -1.01323 -0.534967 0.37007 -0.497742 0.165106
204 1 31.423 40.2329 31.324 -0.567614 -2.80275 2.60087 -0.0381462 -0.123066 0.172293
205 2 20.2756 58.7533 23.8525 1.00039 1.55756 1.01086 -0.817297 0.331026 -0.314953
206 2 4.20882 34.6851 3.79635 0.971544 0.791364 0.642016 0.447017 -0.521144 0.168752
207 2 13.3472 51.6598 20.3509 1.34866 -4.3705 -1.46258 -0.0264805 0.146452 0.495507
208 2 53.4729 33.177 12.8057 -0.42066 2.20955 -1.59682 0.155066 -0.497488 0.411451
209 1 19.8992 11.3823 57.2422 0.474659 -0.0840537 1.7839 0.380233 0.0115401 0.344536
210 2 2.80106 2.39813 50.6716 0.0470797 0.0871082 -1.40441 -0.691508 0.3761 -0.384145
211 2 34.306 16.6035 18.1437 0.717294 0.566422 -2.00548 0.697033 -0.363372 0.234498
212 1 57.3435 31.2277 30.6941 -2.07738 0.763636 -1.7429 0.0266307 0.319775 0.135773
213 2 26.38 14.9693 28.4883 0.37719 -1.61864 -2.52768 0.399119 -0.332873 -0.0586475
214 1 40.7825 42.6785 26.2996 0.729168 1.93584 0.235552 0.106195 -0.357537 -0.279895
215 2 51.8525 20.9014 25.666 -0.999093 -0.151964 2.98554 -0.657971 -0.716728 0.069377
216 2 14.8135 49.6811 22.4925 -1.74215 -2.13809 -1.08493 0.0315264 0.181523 0.225412
217 1 38.375 39.9305 23.6092 1.56649 1.37399 4.76693 -0.119836 0.364545 -0.626599
218 2 55.4658 20.8328 56.4353 0.519716 -0.275432 -1.42185 -0.835361 -0.194646 -0.157356
219 1 49.8354 28.2499 27.5843 0.532756 -1.72646 -0.141487 -0.468281 0.757646 0.378965
220 1 41.0496 24.5715 45.2556 -1.8809 -3.08937 2.45357 0.117059 0.263694 -0.207573
221 1 27.5969 49.9024 41.1205 -1.4568 0.925542 -0.631682 -0.472521 -0.199274 -0.213182
222 1 54.1046 34.6795 4.84623 1.33756 2.08553 -0.587686 0.0539187 0.858532 0.700214
223 1 42.5954 42.9922 6.31762 -2.89971 3.38737 -0.170826 -1.059 -0.0788686 -0.0051985
224 1 9.13674 47.1481 4.25807 1.15249 -1.13861 0.694636 -0.143845 -0.168111 -0.0568545
225 2 33.7629 24.878 21.6027 1.53663 -0.159099 -1.17209 0.590862 -0.288393 0.625124
226 2 45.5125 7.03653 56.5723 2.06392 1.39674 0.764176 -0.170733 0.365378 0.0176463
227 1 8.44865 8.3556 19.705 -2.6491 0.402845 0.524296 0.138849 0.204382 -0.464853
228 2 0.416059 44.6225 50.1195 1.24124 -1.26747 -2.36459 0.327081 0.179492 0.210111
229 1 18.7623 10.9221 36.4104 -1.14008 0.983817 -0.614545 0.0519185 0.236328 -0.413018
230 1 48.7091 45.1221 32.7815 0.305788 3.7528 0.869036 -0.313279 -0.04228 -0.317064
231 1 54.4932 25.7267 21.7441 -2.24342 1.71595 0.0551477 -0.324101 0.12779 0.470009
232 2 49.1553 0.680284 30.6746 1.86908 -0.905053 -0.594807 -0.475127 0.372953 0.446905
233 2 33.528 56.2107 7.33858 -0.759293 0.151137 -0.936452 -0.0407252 0.221307 0.190145
234 2 56.0684 54.0604 46.5245 -0.396294 2.10298 -0.599602 0.779648 -0.0894812 -0.34343
235 2 54.8016 16.0798 10.8658 0.720466 1.16829 1.40721 0.165079 0.221798 -0.111959
236 2 6.75846 29.3681 33.2276 -0.242437 1.2108 -0.459857 0.337126 0.380823 -0.0561694
237 2 57.2552 14.9259 1.64832 -0.532862 -0.871117 0.67282 -0.225007 0.371573 0.30985
238 2 56.439 31.437 43.3445 -1.53257 1.54822 -0.362797 -0.536922 -0.286981 -0.241163
239 1 45.6701 16.7473 34.3861 2.51834 -1.93914 -0.349024 0.236726 -0.727198 -0.0390763
240 1 45.1869 13.5105 55.7806 1.06891 1.19375 -0.114543 0.234537 0.752643 -0.609605
241 1 52.7608 18.6338 36.5227 -2.48326 -1.93177 2.27294 0.412254 -0.60831 0.35394
242 2 25.8235 26.0836 17.3919 -1.98435 -0.273766 -1.88146 0.223592 0.45391 0.931114
243 1 32.753 25.3588 39.2032 -0.256063 0.827204 0.648479 -0.893047 -0.458036 -0.626516
244 1 4.72388 32.692 45.2659 2.40267 2.38088 1.12917 0.361073 -0.475351 -0.217877
245 1 17.9936 44.4486 42.6711 1.3486 -1.6907 -1.9802 0.0869285 -0.254964 -0.221294
246 2 58.5649 22.7335 13.3099 -0.556535 2.97291 1.21446 -0.0760919 -0.688097 -0.126401
247 2 11.5259 8.44668 26.0626 2.77199 1.90356 0.403019 -0.0175853 0.0287702 -0.161585
248 1 15.456 11.7567 25.8668 0.415156 1.33751 0.992308 0.437672 0.528905 -0.445997
249 2 14.0778 21.5654 20.5288 2.82621 -0.0419591 -0.021417 -0.203485 -0.555058 0.589372
250 1 48.019 40.7605 55.3743 2.41399 -2.52466 -0.452992 -0.341344 -0.326336 -0.0252839
251 2 29.6717 31.5792 8.54155 0.159899 2.08763 2.00408 -0.28996 0.450336 -0.00989111
252 1 2.84004 2.42071 32.7746 -3.47866 -1.5376 4.87008 -0.0118982 -0.0466408 -0.0277894
253 2 32.4173 26.9996 16.7592 0.384917 2.50001 0.634315 -0.606714 0.0250434 -0.0550975
254 2 34.8808 34.5904 7.66442 -2.37676 0.462278 1.13516 -0.283989 -0.49607 0.225986
255 2 30.2842 35.508 59.2221 -3.64168 1.10657 -1.62803 0.423086 0.81837 0.217543
256 2 48.6683 14.754 14.5701 1.38627 2.86245 1.69767 0.282692 0.0224369 -0.109886
257 2 17.3823 2.15386 43.562 -0.963991 -1.70823 2.69331 0.25457 -0.00476374 -0.0939773
258 1 45.8253 3.74689 36.9558 0.873856 -2.30965 4.83706 -0.526273 0.327314 0.568234
259 2 35.7633 31.1664 3.27886 0.421778 -8.86217e-04 0.677057 0.43891 -0.425532 -0.943526
260 2 3.55326 19.9296 57.4828 -1.92289 -1.87314 -1.67729 -0.319824 0.243725 -0.22899
261 1 52.2529 57.9153 14.8295 -0.0513624 0.190142 -0.86584 -0.133859 0.0343798 0.201097
262 2 33.5872 23.8639 4.56613 -1.73424 1.30065 1.02325 -0.550921 0.602724 0.218953
263 2 10.1394 10.9365 3.14591 1.73426 -1.82557 1.51733 0.28531 0.0180077 0.0267316
264 2 24.2735 22.9185 51.6069 1.76637 2.54973 -0.360829 -0.159413 -0.0148714 -0.0583478
265 2 16.2034 45.5988 10.9739 2.12067 0.546227 -1.42478 0.436508 0.508123 -0.0114025
266 2 36.3031 33.3863 40.8726 -0.0784433 0.843364 3.35274 0.228279 -0.158175 0.77533
267 2 32.3185 54.3668 19.8886 -0.841649 0.92263 2.16386 0.262091 -1.06277 -0.373064
268 2 7.82379 17.2683 41.8046 -0.059555 -1.3336 -1.50299 0.156971 -0.318873 0.178219
269 1 19.6022 52.1217 16.9507 -1.83619 0.819679 1.33927 -0.00338116 0.00347133 0.308576
270 1 51.0474 21.6198 45.6714 1.29686 3.52854 -1.76575 -0.177253 -0.148181 -0.756005
271 2 6.39863 0.56212 26.5806 3.62497 -0.910135 1.41277 0.362148 -0.200095 0.119015
272 2 19.9549 23.0429 9.81438 1.13007 -0.717223 -1.20462 -0.0370339 0.298453 0.17627
273 1 7.76049 27.5891 11.0091 -0.446731 2.73304 -1.96745 0.34177 0.121561 -0.449809
274 2 2.32406 35.8086 6.24962 -0.401907 -0.62294 -1.73678 0.211302 0.309792 -0.00715773
275 1 33.8753 52.8424 38.7608 0.174655 0.0274992 4.15417 -0.652034 -0.174214 -0.312995
276 1 18.3369 31.7656 43.2834 -2.57102 -1.84636 2.26103 -0.240262 0.147924 0.122672
277 2 34.4905 19.4625 39.7084 0.970391 -0.030939 1.16879 -0.0540891 0.488114 0.48512
278 1 15.5418 22.1739 44.4394 -0.185541 1.53909 1.80243 0.0353395 0.944022 -0.218565
279 2 10.7564 1.21268 53.7799 0.333264 -1.82095 -1.62859 0.0493792 -8.53237e-04 -0.293449
280 2 2.56202 59.1115 38.8017 -1.81092 -0.142895 -1.44813 0.0269357 -0.231002 0.251658
281 2 12.0534 29.3235 2.26501 1.1374 0.24832 0.0581997 -0.154145 0.454255 -0.152757
282 2 32.1589 2.86614 12.0952 0.468907 0.791505 0.14459 -0.314954 0.406187 0.242446
283 1 51.5347 43.2744 2.6741 -2.04023 -0.20816 -2.31479 0.55675 -0.208249 -0.187223
284 2 42.9079 20.5587 35.6934 2.69085 0.562077 -1.54496 0.238111 0.133321 -0.0566439
285 1 58.5824 21.2301 18.6228 -0.0125698 -0.059335 -1.72597 1.36158 -0.570235 0.945352
286 1 3.81152 52.15 47.6282 -0.988887 0.635198 1.03534 -0.549518 -0.0984725 0.195396
287 2 23.8047 0.670384 8.95623 -0.0806823 0.286732 2.64097 -0.0222349 -0.233861 -0.347708
288 2 56.7822 30.4887 35.6068 2.04151 -3.00238 1.84098 0.740848 -0.0593029 -0.00690022
289 2 16.0522 53.8735 31.0279 -0.289522 2.08326 1.35555 0.125018 0.216893 0.309094
290 1 55.8795 13.4869 46.2672 0.0914116 -3.02395 3.91809 -0.245727 -0.0482341 -0.330917
291 2 52.4566 6.64978 55.5896 -0.399341 -0.463276 1.71594 0.1138 0.0164102 -0.102574
292 2 38.6979 4.75234 7.84011 1.417 0.251912 -0.354005 -0.347364 0.483691 -0.238404
293 2 2.86408 56.0663 39.9102 2.60918 -2.71374 -2.10482 -0.381632 0.433844 0.246363
294 2 6.54218 54.8941 31.7301 1.258 -1.96272 0.437264 0.0239815 0.487054 -0.623792
295 1 3.99738 33.8367 20.8025 1.76519 3.01619 -0.573297 -0.161136 -0.677411 0.446515
296 1 41.3394 2.32877 20.5576 2.65026 0.86268 -0.589436 0.288945 0.15158 -0.478818
297 2 52.4403 28.5875 27.4088 -2.58518 1.69912 -0.98861 -0.265272 -0.538698 0.18026
298 2 25.9598 51.1929 43.3004 -0.507282 0.200658 -0.941025 0.572153 -0.679737 -0.705783
299 2 46.1116 20.5152 35.1135 -1.06986 1.91443 5.39493 0.19262 -0.687098 0.296135
300 2 42.4304 47.7508 15.0152 -0.19115 -0.0753349 2.06533 0.061181 -0.286473 -0.0724877
301 1 14.5502 47.3596 28.0676 0.0620875 1.67183 0.875072 0.4268 -0.042848 -0.264686
302 1 53.3263 13.2557 27.1504 0.603509 0.985499 3.21406 -0.73045 0.662535 -0.300874
303 2 10.7558 51.3724 9.85643 -0.99079 -2.05555 -1.73639 0.316383 0.101794 0.141908
304 2 3.55193 8.23018 14.0353 1.54133 -2.48953 -0.967883 0.49789 -0.328448 0.389759
305 1 55.687 41.0504 8.88955 -1.57505 0.0292685 -0.328345 0.149988 0.0509739 -0.0904568
306 1 57.5631 17.7885 46.9168 1.41153 1.31132 1.97499 0.695921 -0.0192466 0.661795
307 1 8.75319 48.4599 53.6827 1.02053 -3.69232 -0.568313 -0.510268 0.227929 -0.265569
308 1 50.6576 39.2068 22.1122 0.663652 2.38729 -0.167035 -0.519114 -0.119752 0.486087
309 1 1.48916 27.8127 18.2778 2.29938 3.96518 -3.99812 0.0638332 0.0478098 -0.00394427
310 1 28.0021 40.6256 6.5617 1.06228 -1.39843 2.15323 0.205546 -0.52514 0.130069
311 1 4.27708 56.6098 32.5332 0.640734 -3.20585 -2.86936 0.0168674 -0.0353388 0.133525
312 2 5.67911 30.6329 50.6635 -0.549636 -1.62548 -1.94285 -0.35236 -0.273726 -0.489754
313 2 9.74877 36.7186 6.68227 -3.55085 1.22027 -2.05557 -0.290041 -0.264896 -0.0524795
314 1 28.2058 56.2872 8.61185 0.588923 -1.18842 4.37426 -0.571891 0.658645 -0.377426
315 1 4.58748 52.8183 15.6352 0.593703 -0.602445 0.779687 0.00460053 -0.0199424 -0.0336405
316 1 6.71633 3.27655 37.4587 -0.340069 -0.240688 -1.0491 0.178728 0.312805 -0.476049
317 2 30.014 49.3877 9.38338 1.60534 -0.283069 -2.68014 0.025662 -0.750559 -0.285347
318 2 58.5628 50.2543 9.06584 -0.588725 -1.36547 0.740699 -0.301273 0.808277 -0.650439
319 2 47.514 5.4119 13.2658 2.70377 -2.23646 1.29912 0.339974 -0.137104 -0.076755
320 1 8.34327 53.5298 5.38427 -0.159934 -4.62068 2.72638 0.277087 0.566936 0.268432
321 2 23.1495 57.0326 47.4989 2.57889 -1.22108 0.467677 0.243398 -0.399656 -0.126812
322 1 10.3486 31.4081 53.2048 -0.623323 -0.456681 2.32592 -0.116659 0.15176 0.336794
323 1 38.6724 34.3217 13.9578 1.8965 -2.8189 -2.00276 -0.181344 -0.381124 0.375818
324 2 57.4921 13.226 4.89522 1.74437 0.650286 -2.51673 0.246973 0.113176 -0.201701
325 1 17.7233 3.94122 48.9278 0.248616 -1.58452 1.11939 0.111173 -0.114918 0.160013
326 2 26.7865 2.4126 57.381 -1.04739 0.705146 -1.47717 0.12928 -0.0116535 -0.0579345
327 2 27.0127 40.8602 21.9067 -1.85813 -0.614079 -1.83579 0.156596 0.47105 0.119278
328 2 32.7649 31.9668 31.618 1.13622 3.94964 1.33749 0.00160219 -0.458134 0.0713066
329 2 39.5031 3.97978 50.7152 -3.64409 -1.1857 0.818506 -0.22757 0.0304456 0.192989
330 2 48.7602 52.6474 7.06115 -0.987809 -1.96988 0.83774 -0.468249 0.221691 0.163093
331 2 36.3209 16.5103 24.4667 1.04908 2.743 1.62056 0.730692 1.00215 -0.850668
332 2 2.45139 17.9531 34.1061 -0.610661 1.39513 0.726788 0.335715 -0.132571 -0.349164
333 2 47.941 2.74955 11.4589 -1.45012 0.263562 2.75034 -0.31833 0.144854 -0.496889
334 1 55.7317 12.7729 2.32909 3.06927 -1.58559 -2.32678 -0.36263 -0.0387333 0.174226
335 2 33.0806 55.6388 50.3592 -0.536766 -0.774749 -1.10273 0.162613 0.296239 0.501816
336 2 17.8936 13.0753 34.8074 1.42894 -0.532448 0.00294757 -0.0554364 0.289572 -0.17988
337 1 8.71698 4.1295 4.03012 3.22888 3.11225 0.509977 0.395753 -0.0738632 0.36521
338 1 11.2504 46.1262 28.2872 3.45179 1.32021 -0.03759 0.157093 0.454765 -0.049383
339 2 11.763 24.4781 51.9484 2.39376 0.115645 0.515576 0.246096 0.0671722 0.4584
340 1 30.4543 42.4447 57.2163 2.9549 -0.16481 1.5341 0.226258 0.0541166 0.172502
341 2 57.8263 32.2515 53.6857 -0.0989127 -0.56824 0.853215 0.16621 0.426966 -0.0983665
342 1 20.3986 29.2437 0.108621 -0.243659 1.39661 1.28571 0.19502 -0.326508 -0.176533
343 1 54.1402 18.7593 57.1484 -0.493525 -0.56313 0.30313 0.143967 -0.186493 0.0943075
344 1 20.3414 25.1676 58.3515 2.83865 -2.12428 -0.0168982 -0.502962 -0.463195 -0.0704178
345 1 44.3125 32.1448 23.6041 0.818321 -2.12229 3.8703 -0.312511 0.327086 0.127054
346 1 50.6731 3.01816 30.744 -1.46865 3.00176 -0.374084 -0.010311 -3.33533e-04 0.0827651
347 2 53.6093 43.1535 0.383917 -2.80995 0.027125 0.0803725 -0.269253 -0.00534979 -0.277063