ITEM: TIMESTEP
22000000
ITEM: NUMBER OF ATOMS
11664
ITEM: BOX BOUNDS pp pp pp
-0.0174996 59.4175
-0.0174996 59.4175
-0.0174996 59.4175
ITEM: ATOMS id type x y z vx vy vz fx fy fz
1 1 33.6018 8.93075 26.3222 -0.544309 -0.95913 0.696555 -0.62996 -0.338128 0.375242
2 2 36.4975 38.4896 24.8734 -1.84889 1.11813 -0.35918 -0.280852 0.068707 -0.097775
3 1 23.8884 5.07126 59.4124 -1.84066 0.0330709 0.843195 -0.643489 0.25581 0.256308
4 1 9.74498 54.014 21.9882 -0.760969 -0.885135 2.18877 0.744575 0.692913 -0.0698124
5 1 15.1622 7.90626 13.0669 0.136854 3.2627 -0.343404 0.406227 0.152455 -1.24785
6 2 35.9703 39.0545 0.456474 -1.68463 -0.303411 -1.0554 -0.306855 -0.0559948 -0.143388
7 1 20.1448 1.88915 13.8327 1.1635 -0.26338 -1.75005 -0.11439 0.463075 -0.0565119
8 1 19.0279 28.8164 20.6991 2.25095 -0.611546 -3.87836 0.230466 0.418174 0.161427
9 2 43.7609 59.1742 9.89853 1.32625 0.523766 2.28385 -0.0460004 0.382996 0.065686
10 2 54.975 11.7429 9.56119 1.43443 -1.14509 0.516059 -0.307932 -0.496411 0.273227
11 2 33.851 26.7948 19.5504 -2.7677 0.89656 -1.18716 -0.332301 0.177004 -0.110311
12 2 22.9558 55.3008 16.1045 -0.449581 -0.983513 0.739147 -0.648389 -0.29558 -0.177011
13 2 15.9648 22.4861 18.2862 0.142258 3.31408 1.86438 0.176845 -0.385463 0.0547513
14 2 20.2327 5.41231 7.57354 0.858049 -0.820171 0.903288 -0.16192 -0.315701 0.0869853
15 2 52.6213 6.67528 36.6912 0.425828 -0.142597 -0.807163 0.985097 -0.450767 -0.0180025
16 1 39.6836 42.6102 53.4223 -0.194308 -2.10051 2.34694 -0.548915 0.251927 -0.0496462
17 1 27.0418 23.0945 23.7144 -0.162651 0.467299 -1.6321 0.361338 0.0143687 -0.0183516
18 1 0.669878 46.1247 47.0569 -0.0218007 2.89433 -0.0437665 0.701531 -0.450566 -0.150678
19 2 33.4641 10.9896 46.2223 0.628276 -0.24181 3.89857 0.184157 0.443806 -0.412446
20 2 1.57296 30.4402 55.291 0.859818 1.68589 2.58794 -0.0610088 0.167544 0.350169
21 2 4.00215 23.2457 45.2653 -1.75191 -2.43561 -1.02707 0.389073 -0.826118 -0.174305
22 1 22.6761 5.17421 14.98 1.68307 -2.07016 -1.33359 0.390976 0.140544 -0.386423
23 1 51.9742 3.00291 28.3877 -6.50573 -0.81441 4.3175 -0.112502 -0.172386 -0.0702374
24 2 22.4982 5.84108 11.387 0.973792 -0.751888 1.47543 -0.318557 -0.214356 -0.242263
25 1 59.0003 12.082 25.3801 -2.39241 -1.33216 -0.0939909 -0.0238798 -0.333302 -0.203783
26 1 39.0447 16.7269 22.6313 -0.765391 -1.22452 0.832506 0.0473082 0.343248 0.440285
27 2 56.448 47.8547 16.6106 0.0175725 1.83787 0.00351368 -0.554762 -0.455294 -0.336371
28 2 31.5331 14.6412 25.1102 2.96429 -1.71421 -1.6153 -0.456692 -0.159932 -0.262329
29 2 35.5762 58.1522 50.0951 0.799354 -0.732717 -0.459678 0.226432 -0.892449 -0.549095
30 1 39.5397 24.8074 23.3457 1.39258 -0.735454 -0.297037 -0.0611502 -0.0918372 0.351507
31 2 56.4132 24.906 12.3645 0.659756 0.341956 -1.33412 -0.902196 -0.00545893 -0.0829741
32 2 10.8226 32.2611 3.65143 1.07047 0.903402 0.848335 -0.88859 -0.506772 -0.646082
33 2 36.7581 13.3847 41.0044 -1.51612 0.787968 0.572658 -0.342314 0.560435 -0.491518
34 1 23.2469 53.0947 32.1555 0.0421383 -3.96064 -1.3265 -0.2192 0.464493 0.459719
35 1 55.8045 15.5195 31.1886 -1.86346 1.00065 1.63932 0.628959 -0.20145 0.110582
36 2 48.5314 49.7449 31.7017 2.78098 1.04225 -0.0788139 0.435472 0.399963 -0.0469636
37 1 33.0127 17.402 31.7249 -0.420312 -1.01686 0.76007 -0.0715308 -0.206523 -0.00370995
38 2 44.5648 15.203 11.2309 1.57379 -1.58374 -0.371656 0.238143 -0.0811807 0.0553746
39 1 53.8263 55.1002 18.4417 1.22352 4.78228 -1.39062 -0.688928 -0.23908 -0.252838
40 1 29.3712 54.87 24.9757 -0.203121 -0.794009 -0.0148902 0.727139 0.14165 0.556284
41 2 50.6581 51.9151 55.084 3.07063 -1.03784 1.36621 0.139839 0.0225912 0.3089
42 1 44.3822 2.94746 53.8765 -1.21563 -0.180046 -0.333523 -0.116062 -0.203473 -0.284216
43 1 5.23125 11.465 45.5058 1.23803 1.34221 -1.33834 0.261124 -0.224386 -0.0552669
44 2 42.1995 38.8219 33.5477 2.07682 -1.53349 -2.24018 -0.0102217 0.130549 0.876778
45 2 44.7695 37.9411 31.9657 -0.178412 -0.72866 -0.736371 -0.427814 0.07279 0.0174976
46 1 41.4555 58.1565 55.783 0.111754 -2.5462 -0.478675 -0.40444 0.0330661 0.176232
47 1 48.2544 12.5995 24.365 1.04161 1.15589 0.923096 0.320288 0.0746832 0.20875
48 2 40.1668 46.3385 38.6122 -2.6041 -0.319116 -3.46066 0.748455 -0.653646 -0.10483
49 1 27.683 51.9686 45.1981 -4.47102 0.431334 0.276749 -0.0989071 0.250902 -0.470221
50 2 19.3722 47.7416 56.5811 -0.282853 -2.00058 -0.394166 0.0856562 0.447447 -0.213934
51 1 15.5318 2.65631 45.5979 -0.445223 -0.412376 -1.25502 0.290589 0.259695 0.18884
52 1 18.7201 45.6395 49.214 -1.46813 -0.431167 2.22528 0.16901 -0.217592 -0.241398
53 1 10.6811 27.6079 6.64758 1.29562 0.466678 1.41758 0.0238698 -0.227831 0.00819086
54 1 32.7663 12.8704 52.9583 -0.350568 3.36344 -0.525383 0.147651 -0.443711 0.394744
55 2 52.1666 25.5416 29.3402 -0.121039 1.25412 1.96833 -0.366894 -0.0852875 0.356624
56 2 22.1289 59.2588 56.3822 0.807945 1.49917 2.13194 -0.322447 0.00811653 0.0379284
57 1 45.6379 21.4923 43.8206 4.56788 0.00328826 1.87108 -0.375582 0.220536 0.203336
58 2 37.502 54.0916 55.4732 0.965972 1.20321 -2.2987 0.659761 -0.296543 1.04738
59 1 20.2253 4.26416 2.69112 -0.776549 -0.0602836 0.410622 0.304893 -0.219969 0.0952461
60 2 10.6116 9.36228 17.8191 -1.70405 0.206472 -0.561744 -0.119734 0.492482 -0.289256
61 1 24.3616 39.6691 22.375 2.12359 -1.08226 -4.04646 -0.0412193 0.0739316 -0.0500469
62 2 57.6295 26.6468 1.28254 -0.210878 0.657513 2.44814 -0.0718693 0.051509 -0.0188404
63 2 50.177 22.865 40.8842 -3.03961 -0.433355 3.4409 -0.489282 -0.226574 -0.128111
64 2 5.64764 32.2684 29.8369 2.41122 0.489606 2.24315 -0.121239 -0.130288 0.107755
65 1 27.5375 15.1033 13.527 0.993231 -2.52627 0.905602 -0.495336 -0.156884 0.483846
66 1 37.5199 25.3593 31.2376 2.05918 5.37378 0.0240092 -0.535233 -0.397359 -0.248165
67 1 36.0384 34.7622 52.6308 -4.70995 1.0297 -0.724973 -0.395923 0.279876 0.357085
68 2 43.8703 46.048 57.8215 0.588251 0.985612 2.39616 -0.613041 -0.449885 -0.0494595
69 2 23.5803 55.7474 30.523 0.817904 -0.989904 -2.86799 0.348449 0.637334 -0.984632
70 2 16.301 17.4126 18.065 1.42292 -1.43786 0.110961 0.879961 -0.796433 -0.0332725
71 1 20.383 4.61733 10.1616 -1.20691 0.0343545 1.33892 -0.656895 0.0929698 -0.196567
72 2 5.00559 42.5817 12.0741 1.1355 0.438812 2.1682 0.0330412 0.0746563 -0.234133
73 2 42.9927 12.6909 50.3443 0.26017 -1.59249 -0.668958 0.457564 -0.0498684 0.152742
74 2 26.7321 22.0552 50.0079 -0.550603 -1.20418 1.18535 -0.226207 -0.168128 0.294409
75 2 29.7255 57.5642 31.7921 1.3747 0.154408 1.27106 -0.34965 -0.954185 0.108305
76 2 19.8298 55.2619 56.3966 -4.32275 -2.6631 -0.849756 0.625955 0.878853 0.635436
77 2 12.9941 22.3395 27.8713 0.483309 2.61679 -2.2069 0.183919 0.524248 -0.0846486
78 1 3.41885 19.7592 19.6327 1.36834 -0.308786 -5.01442 -0.200925 -0.704834 -0.245123
79 2 51.9757 10.9591 29.6166 0.199062 -1.60682 -3.14225 -0.806705 -0.258939 0.594806
80 1 10.6447 20.3295 23.8724 -3.18842 -1.01374 0.874051 -0.0215583 -0.478664 0.083269
81 2 5.08866 45.7439 27.0199 0.0934353 2.61281 0.0782646 -0.501998 -0.385229 0.0203413
82 2 31.8456 17.3839 56.0794 -2.40029 -0.0409939 1.46919 0.290765 0.06497 0.252416
83 2 7.09993 39.4968 31.6954 -2.66044 -0.794555 -1.39196 -0.190047 -0.602477 0.38941
84 2 45.2772 27.9363 45.9296 1.91396 -1.8201 0.522937 0.096322 -0.389929 0.761279
85 2 54.3072 12.5859 52.6106 0.515332 -1.61462 -0.257282 -0.469281 0.384024 0.0602713
86 2 6.95382 10.9279 3.50906 0.00790641 0.243597 4.73695 0.298253 -0.5772 0.358525
87 1 12.0696 11.8751 22.2087 1.99047 -0.822704 0.522929 -0.233584 0.195473 0.199881
88 2 22.1026 59.1134 34.0898 -1.49532 -0.0942951 4.18597 -0.506446 -0.0231869 -0.692703
89 1 28.2541 12.7378 46.3781 -0.256784 0.623702 -1.7028 0.708448 0.0848541 -0.718546
90 2 35.2327 55.891 4.48901 -0.516023 -0.928964 -1.90092 -0.0475859 -0.0750904 0.196147
91 2 3.82347 49.3334 21.7243 -0.829652 -1.08953 0.678102 -0.862755 -0.334278 0.386168
92 1 42.3809 7.41995 8.50688 0.440016 1.37445 -2.83876 -0.163383 0.469762 -0.67659
93 2 6.29418 46.7551 18.5347 -0.979563 0.10426 -1.65142 -0.580141 0.0887504 0.324415
94 2 6.29797 26.2454 37.3956 2.5852 0.250999 1.94819 0.118248 -0.176936 0.0150023
95 1 26.207 42.5201 52.5125 -3.89732 -2.06281 -1.29331 0.265633 -0.329922 -0.115205
96 1 7.9583 36.5273 27.8225 -3.29118 0.446314 -1.22637 0.397251 -0.980791 -1.41869
97 1 0.335783 2.40574 58.1044 -0.599156 1.24163 -0.478433 -0.527303 0.163868 0.0734989
98 1 18.5072 33.1013 1.4966 -2.05939 2.27251 -4.15267 -0.0960463 -0.0392671 -0.188546
99 1 53.7709 1.89417 51.9594 1.87715 2.5268 -2.78644 8.84998e-05 -0.271149 -0.0645798
100 1 12.204 40.5166 57.1786 1.10691 -2.82922 1.29077 -0.12458 -0.138951 0.290705
101 2 5.48452 44.5961 40.3265 2.40728 1.72058 3.47881 -0.126444 -0.266754 0.455246
102 1 18.5963 6.53596 49.5672 -1.33868 0.164282 -4.08622 0.468306 -0.534703 0.145854
103 2 40.6846 31.0559 34.7427 1.42454 -0.654711 -1.08293 0.021897 0.150241 0.520396
104 1 47.6969 24.1132 20.0373 -1.92831 -1.62361 6.49198 0.140216 0.0129891 0.471368
105 2 33.025 39.9153 20.4127 1.80791 2.64156 -1.71626 -0.0409451 -1.15995 -0.143373
106 1 30.723 0.347062 2.1515 1.97094 1.43831 3.09544 0.573878 0.447574 -0.017673
107 2 56.6908 16.8516 26.5379 -1.74743 0.645608 2.31133 0.503406 0.280609 -0.097081
108 1 5.60886 27.922 27.6652 1.6718 -0.248251 -1.38365 -0.248148 -0.357935 0.348715
109 2 32.1448 20.2677 22.4305 1.12032 -0.316201 -0.122749 -0.119161 -0.663096 0.137886
110 2 37.5853 0.27412 30.353 0.00480716 0.589069 -0.727844 0.14631 0.345082 -0.194709
111 2 8.72976 55.6161 24.1413 -0.36739 1.91996 -1.69217 0.329906 0.0492223 -0.486158
112 2 54.5102 30.6089 20.3255 -0.588436 1.05729 -0.624276 0.341492 0.072347 0.487086
113 1 20.4591 15.5738 52.4908 -0.4073 1.55874 2.27889 -0.549867 -0.0353023 -0.0417219
114 1 14.7052 13.043 31.1393 -1.98963 -0.0150296 -2.41967 0.0431628 -0.367791 -0.458943
115 1 46.3178 47.5483 57.9968 3.60867 -6.10649 0.870576 0.205337 -0.180516 0.094684
116 1 45.1672 42.9049 22.0676 -0.899722 -0.420513 -1.1495 -0.517665 -0.581705 0.376032
117 1 23.6655 27.6807 31.8031 1.67085 -0.990524 1.19011 0.0337556 -0.174663 -0.123798
118 2 1.98915 47.2018 56.764 -1.00582 -0.5811 -0.611357 0.392465 0.323169 -0.552375
119 1 52.4181 57.4529 39.5937 1.45738 -2.2264 -1.99239 0.215198 0.165577 0.832539
120 1 41.5041 0.222732 52.078 -1.77028 0.936534 -2.16417 0.572517 -0.227343 0.788495
121 1 23.9947 41.1793 38.0397 2.44755 1.00423 -2.15642 -0.292408 0.151563 -0.645962
122 2 53.5946 36.2199 33.4719 -0.903182 -0.985931 0.291311 -0.111116 0.174579 0.318098
123 1 2.86456 12.4581 42.1495 -0.278583 2.06217 -0.955458 -0.218499 0.310142 -0.242452
124 2 39.331 26.4437 46.8631 -0.216187 1.71339 -2.22497 -0.00550205 0.205184 0.312985
125 1 51.0059 14.3134 40.9699 -0.752638 0.571861 -2.76582 -0.34561 -0.147384 -0.10714
126 2 43.4803 39.2708 36.4202 0.83085 2.36025 1.34353 -0.411701 0.811157 0.269405
127 1 7.48855 40.8889 36.6891 -4.28498 3.68713 -1.14539 -0.00150169 0.0293837 -0.0345015
128 1 11.8078 15.9633 22.5151 -1.33081 2.23772 -0.199023 0.144747 0.425073 0.113917
129 2 18.1825 3.04769 7.48362 -2.33217 0.939483 -0.752494 -0.631482 0.344245 -0.38885
130 2 55.761 16.3974 48.2849 -4.34295 0.810772 -3.03324 -0.407404 -0.432812 0.256043
131 2 20.5219 37.4427 41.1182 -1.25631 1.96939 0.154386 0.300102 0.190188 0.254662
132 2 34.5139 8.52034 9.24909 -0.601531 1.72116 2.531 0.0528139 0.559995 -0.504788
133 2 46.2134 21.382 38.1952 1.57379 0.245108 -0.240753 -0.0273417 0.308303 -0.25814
134 2 58.655 48.9887 18.2158 1.13257 1.69988 1.1808 0.554063 0.810462 0.195803
135 2 16.4732 54.1253 15.9869 0.908917 3.33134 0.951719 0.442843 -0.0674774 0.439097
136 1 53.0544 17.8899 14.7257 0.00473283 -1.58489 -1.45745 -0.19177 0.00334037 0.378406
137 2 5.09388 44.9333 2.32348 -1.58066 -1.20922 -0.904147 0.392602 0.0300124 -0.395703
138 2 42.8462 20.8865 18.162 -0.318587 -2.63842 1.78074 0.749832 -0.204444 0.282097
139 1 10.9987 24.1512 42.2711 -1.96302 1.36581 1.18959 -0.306694 -0.430289 0.00994658
140 1 3.594 8.0697 50.8264 -2.32748 -1.77329 -1.46766 -0.648741 0.0515586 -0.355941
141 1 39.0551 42.5849 10.5343 -0.844483 0.92522 0.960308 0.590281 0.787307 0.248551
142 1 16.6632 31.2775 38.1649 0.0622828 0.868945 4.06678 -0.0878206 0.213693 -0.19581
143 1 56.0523 19.5229 1.75273 -1.37487 1.18519 -1.60525 0.491266 -0.127658 0.378929
144 1 45.0665 8.72154 1.95079 -2.61571 1.98454 0.790258 0.150409 -0.484916 0.309472
145 2 16.3339 27.1716 41.7505 0.804806 2.027 -1.82719 -0.0557329 0.264268 -0.399278
146 2 48.0626 25.1043 41.7411 0.645571 0.784738 -2.51713 0.435819 -0.409853 -0.204224
147 1 36.3256 43.1291 50.0382 0.500153 -3.92075 -1.39791 0.643352 0.0693744 -0.199286
148 2 49.5959 49.7484 20.3255 1.10872 1.64841 1.82099 -0.752842 0.485988 -0.381651
149 2 28.2713 48.325 57.0268 -0.69153 -1.90365 -0.692684 0.0015452 -0.20335 -0.210807
150 1 40.9652 12.3841 17.0876 0.274593 -0.419039 -2.05568 -0.249075 -0.123721 -0.258746
151 2 1.09722 30.4176 42.1832 -1.18402 2.17823 0.751967 0.519393 -0.369897 -0.306876
152 2 45.0626 29.5293 32.4667 -0.338168 0.93484 1.99694 -0.155946 0.0746912 -0.286193
153 2 2.07859 59.4053 3.26986 2.53092 0.536175 0.65014 0.307237 0.17289 0.637459
154 1 33.7747 6.63644 40.3874 -1.30283 -3.56956 -2.55292 0.375828 0.395062 0.144135
155 2 4.56648 56.8238 18.3461 0.619253 0.221519 -0.140454 -0.477676 -0.0231684 0.331577
156 2 5.58444 6.55033 55.9849 -0.280507 -0.868119 -1.66755 -0.156632 0.540577 1.83521
157 2 51.3338 43.273 37.6234 3.46971 -1.35205 0.701439 0.171219 0.376599 0.29949
158 1 26.9433 9.42781 24.6022 -1.74685 -1.84398 -0.0484647 0.256798 0.29797 -0.509318
159 2 50.0685 19.8701 56.7696 -2.51016 0.0209858 -1.0042 -0.0589652 0.514093 -0.577022
160 2 19.6833 55.3174 53.399 -1.44423 -1.5164 -1.30465 0.664034 -0.144962 -0.291356
161 2 2.40215 25.4324 52.4154 -1.35744 -1.27257 -0.634761 -0.26193 -0.390255 -0.107482
162 1 8.75718 16.2347 27.2072 -2.26022 -3.14515 -3.83732 -0.211839 -0.553761 -0.396135
163 2 5.18124 32.1028 1.46468 1.00467 -0.575775 0.31676 0.161781 -0.475229 0.183677
164 1 28.4121 40.5649 4.04171 3.06077 0.249967 0.815684 -0.55722 -0.0598685 0.311335
165 1 29.9732 50.4426 25.886 1.86214 1.71144 3.06436 0.455815 -0.193006 0.332138
166 1 21.2577 45.534 57.3629 0.0367339 2.1316 3.03478 -0.421715 0.15693 -0.115539
167 1 20.777 9.75064 8.79704 2.93895 2.80518 0.529505 -0.501602 -0.0678634 -0.90093
168 1 54.9872 5.97547 2.45592 -1.70642 0.982083 -1.27761 0.15895 -0.22142 0.0629717
169 2 8.20576 6.29223 5.75493 -0.419673 1.31728 1.20796 0.125047 -0.141381 -0.0848219
170 1 25.8493 30.9448 23.0302 -0.0493919 -2.32863 0.650017 0.269909 0.0411572 0.431403
171 1 53.2894 4.08165 16.9003 -0.902401 -0.810672 2.24672 0.0133939 0.0530029 -0.512706
172 1 10.3537 37.3967 4.0291 -0.932154 1.34877 -1.54937 0.221124 -0.199429 -0.0471421
173 2 47.155 26.9742 27.5659 -0.85838 2.10362 1.59168 0.21775 -0.678295 0.245508
174 1 14.4309 14.382 14.9856 -3.4238 0.430719 -3.50828 0.52922 0.0842231 0.206002
175 2 25.0503 14.4832 18.5556 1.57486 -3.15014 -0.453366 -0.688151 -0.428863 -0.442223
176 2 7.96752 28.93 50.2505 1.13389 0.381892 -1.00361 0.12629 0.142683 -0.104504
177 1 49.5168 4.59313 45.7367 1.49047 -1.61075 -1.52173 -0.195888 -0.0202508 0.806294
178 2 32.613 51.5978 7.00265 -0.52554 1.02461 -2.80892 0.214165 -0.304904 -1.10978
179 1 58.4127 9.45971 12.8962 4.33325 2.22029 -0.4108 -0.0312867 0.286934 -0.176909
180 2 51.2026 53.7699 1.27266 0.173166 -0.493118 -0.395672 0.303729 -0.302884 0.0589464
181 2 9.59761 30.6757 13.6795 -0.46231 -0.150152 -1.24233 0.299829 -0.03096 0.0442933
182 1 38.4591 50.9063 9.74332 1.35471 -1.25928 0.347121 -0.128255 0.410602 0.0866257
183 2 2.02025 40.8574 3.05835 -1.85922 -2.66652 0.555695 -0.140373 0.524753 0.0603318
184 2 13.6982 21.949 56.8042 1.1576 -0.34762 -1.95008 0.11183 0.453102 -0.435394
185 1 26.8098 11.3486 35.4277 2.75791 0.283824 1.40535 -0.413555 -0.0514013 0.410936
186 2 51.9973 2.56808 47.324 1.86297 1.111 -0.837025 0.418382 0.288994 -0.710923
187 1 43.6065 22.0995 45.5144 2.51937 -1.2302 0.999168 0.355088 -0.013488 -0.202082
188 1 31.0393 9.48407 3.91631 0.395106 0.454585 -3.92365 0.342147 -0.120646 0.0263629
189 2 25.7544 17.7901 52.6081 0.332573 -2.49734 0.00591594 0.228146 0.0520764 0.170207
190 2 13.3351 41.0315 11.7499 -3.42376 2.00251 0.325689 0.244107 -0.402153 -0.0463143
191 1 28.0671 46.6277 50.6586 -0.69216 -2.40383 0.0863793 -0.288928 -0.203249 0.0731451
192 2 1.08359 10.4018 15.2627 1.85377 2.07905 -2.29853 0.878212 -0.265227 0.529367
193 1 57.1831 42.1056 33.3012 2.21978 -0.952461 -0.485883 0.578865 -0.416039 0.488979
194 1 11.4881 50.2031 18.9861 0.864786 -3.64145 0.118812 0.0340102 0.54569 0.461601
195 1 51.8101 28.1973 42.4728 2.41284 -2.51905 -2.11622 -0.48996 -0.332734 -0.229286
196 1 16.0615 56.1084 29.5007 -0.983535 -2.48371 -2.28195 0.989891 0.340161 1.16012
197 2 32.1695 0.519001 59.1407 -0.295576 0.362424 0.0585931 0.379994 -0.197242 0.382252
198 2 31.3484 51.7618 0.201358 2.56683 -0.254479 1.17781 -0.528323 -0.481703 0.326557
199 2 11.1266 24.872 11.1635 1.83866 -0.00856782 2.74073 0.237718 0.199856 0.0309264
200 1 56.23 16.25 8.5991 -2.81343 -1.68943 -0.760756 0.0812652 0.908694 -0.189945
201 1 8.54976 56.0507 4.71171 5.9301 0.267567 -1.37671 -0.27749 -0.00441697 -0.5142
202 2 4.78415 12.1105 40.4454 -1.46663 -1.65634 0.141493 -0.357916 0.0474757 -0.154776
203 2 57.5048 11.8418 33.4475 -0.967901 -0.172696 -0.80595 0.304533 -0.465812 0.153527
204 1 31.4308 40.2745 31.2865 -0.38436 -2.3826 2.04824 -0.112388 -0.201986 0.264221
205 2 20.2496 58.7329 23.8328 2.18751 0.93666 1.40819 -0.567393 0.373409 -0.165821
206 2 4.19956 34.6655 3.7889 0.244152 1.62566 0.330639 0.398441 -0.469625 0.178219
207 2 13.3269 51.7305 20.3802 1.12385 -4.44195 -2.11337 0.28687 -0.0354674 0.264895
208 2 53.4808 33.1355 12.8361 -0.558617 2.93918 -2.11917 -0.00348253 -0.368523 0.200556
209 1 19.8994 11.3842 57.2197 -0.487105 -0.130368 1.01388 0.385805 0.0382617 0.275208
210 2 2.79176 2.40224 50.6876 1.12266 -0.550678 -0.576469 -0.564817 0.364657 -0.575234
211 2 34.304 16.5899 18.1783 -0.461378 1.14839 -2.26104 0.66502 -0.32365 0.0776337
212 1 57.3761 31.222 30.7238 -1.98998 -0.0745352 -1.91521 -0.0910233 0.359168 0.0136484
213 2 26.3798 14.9898 28.526 -0.360124 -0.859854 -2.0615 0.457133 -0.565478 -0.460769
214 1 40.7732 42.642 26.2912 0.388575 2.5039 0.77891 0.165478 -0.111905 -0.15998
215 2 51.8608 20.8948 25.6212 -0.176998 0.950679 2.51056 -0.279803 -0.571636 0.447354
216 2 14.841 49.7165 22.5118 -1.60878 -2.27076 -1.21843 -0.177648 -0.0116611 -0.0824314
217 1 38.3477 39.9169 23.5243 1.81393 0.233011 5.64587 -0.0828013 0.550863 -0.121381
218 2 55.4461 20.8352 56.4549 1.85865 -0.0438466 -1.02058 -0.717426 -0.0641234 -0.307595
219 1 49.8185 28.2904 27.5938 1.47054 -3.21814 -1.01226 -0.30208 0.474742 0.329051
220 1 41.0821 24.6241 45.2149 -2.23522 -3.34663 2.42185 0.185955 -0.0479579 0.220306
221 1 27.6106 49.8844 41.1257 -0.239235 1.21746 0.0066792 -0.511837 -0.0420471 -0.309265
222 1 54.0846 34.6636 4.86901 1.09916 -0.140165 -2.15842 0.133114 0.93982 0.56531
223 1 42.6201 42.939 6.32011 -0.2168 3.07002 -0.0657362 -1.05854 0.313236 -0.0897527
224 1 9.1164 47.1628 4.24696 1.3826 -0.737021 0.685084 -0.0453778 -0.155867 0.067128
225 2 33.7473 24.876 21.6297 0.331013 0.452534 -2.16236 0.819341 -0.407055 0.536625
226 2 45.4785 7.0208 56.5601 2.06959 0.528767 0.713989 0.157113 0.637323 0.0357905
227 1 8.49302 8.35278 19.6882 -2.80158 0.0289727 1.54072 -0.00347705 0.10243 -0.359128
228 2 0.401307 44.6444 50.1586 0.641869 -1.45881 -2.4684 0.363949 0.0434008 -0.0849949
229 1 18.7801 10.9127 36.4125 -0.963395 0.139908 0.302889 -0.196838 0.453008 -0.323005
230 1 48.6976 45.0628 32.7619 1.1163 3.51765 1.54138 -0.353244 0.212733 -0.236149
231 1 54.5225 25.7019 21.752 -1.48849 1.37972 -0.98473 -0.266176 0.144308 0.361055
232 2 49.12 0.699304 30.6897 2.41741 -1.3671 -1.26893 -0.17845 0.181899 0.343171
233 2 33.539 56.2108 7.35595 -0.587531 -0.193709 -1.16783 -0.151573 0.180381 0.0898446
234 2 56.0853 54.0254 46.5286 -1.78026 2.21004 0.0757855 0.837026 -0.0416969 -0.432199
235 2 54.7924 16.0644 10.8431 0.363283 0.779626 1.38534 0.247052 0.229711 0.125198
236 2 6.76758 29.3542 33.2343 -0.87948 0.513561 -0.399233 0.410725 0.425482 -0.0132891
237 2 57.2602 14.9442 1.64262 -0.134739 -1.34683 0.0641633 -0.229842 0.189225 0.387593
238 2 56.4555 31.4095 43.3468 -0.547202 1.80769 0.0615794 -0.604815 -0.0188312 -0.258653
239 1 45.6364 16.7632 34.3915 1.54609 0.0222958 -0.375413 0.529189 -0.845914 0.058087
240 1 45.1755 13.5055 55.7692 0.259274 -0.489583 1.53429 0.402291 0.609325 -0.703875
241 1 52.8075 18.6535 36.4937 -3.34803 -0.568445 1.32577 0.298489 -0.483639 0.402565
242 2 25.8578 26.0944 17.4342 -2.26825 -1.08822 -3.35065 0.115127 0.500916 0.793082
243 1 32.7402 25.3375 39.1809 1.79044 1.76915 2.07122 -0.752551 -0.289605 -0.495798
244 1 4.69442 32.6465 45.2432 1.22929 3.18007 1.69414 0.58412 -0.178007 -0.243434
245 1 17.9748 44.4694 42.697 0.971672 -0.885269 -1.21707 0.215101 -0.39102 -0.394364
246 2 58.5726 22.6783 13.2907 -0.4711 3.82886 1.10629 -0.0177434 -0.308675 0.234055
247 2 11.4818 8.41862 26.0535 2.77779 1.53877 0.777773 -0.0103283 0.373515 -0.278681
248 1 15.4599 11.7477 25.8426 -0.98383 -0.262344 2.00049 0.683791 0.713709 -0.363633
249 2 14.0315 21.5594 20.5372 2.89628 0.741292 -0.99839 0.104224 -0.354705 0.550778
250 1 47.975 40.7938 55.3802 2.94771 -1.62913 -0.291312 -0.106835 -0.393081 -0.104542
251 2 29.6665 31.5527 8.51128 0.407324 1.19351 1.71653 -0.00362167 0.579408 0.328765
252 1 2.89334 2.44371 32.6989 -2.99413 -1.23406 4.40088 -0.356602 -0.182714 0.391269
253 2 32.4029 26.9618 16.7488 1.38711 2.11744 0.657811 -0.554033 0.390832 0.0210184
254 2 34.9137 34.5766 7.65019 -1.68511 1.20757 0.649606 -0.490613 -0.36243 0.336199
255 2 30.3467 35.5014 59.2503 -4.09868 -0.297886 -1.91136 0.1531 0.821684 0.119198
256 2 48.6496 14.7097 14.5421 0.934053 2.64438 1.80939 0.242383 0.212855 -0.0306597
257 2 17.4012 2.18163 43.5187 -1.36904 -1.72855 2.61175 0.224467 0.0351182 0.16733
258 1 45.8015 3.79003 36.8919 2.03582 -3.00217 3.02961 -0.420273 0.241604 0.847698
259 2 35.7631 31.1606 3.25655 -0.431744 0.728659 2.08412 0.544423 -0.436648 -0.697906
260 2 3.57946 19.9617 57.5054 -1.27645 -2.04049 -1.16271 -0.42609 -0.0380892 -0.362259
261 1 52.2507 57.9126 14.8463 0.289119 0.0996329 -1.13406 -0.134824 0.0411117 0.0266362
262 2 33.6069 23.8511 4.55287 -0.699664 0.352683 0.695049 -0.6461 0.490069 0.158204
263 2 10.1167 10.9657 3.1226 1.08301 -1.76623 1.4317 0.468967 -0.0696886 0.0614417
264 2 24.2435 22.8777 51.6113 1.96503 2.55397 -0.213139 -0.0758047 -0.012356 -0.114035
265 2 16.1764 45.597 10.9953 1.24235 -0.35194 -1.14368 0.569987 0.527822 -0.300835
266 2 36.3077 33.3716 40.8317 -0.528697 0.914187 1.61523 0.296514 0.0623657 1.23052
267 2 32.3355 54.3395 19.8497 -1.29177 2.2726 2.67293 0.255502 -0.493454 -0.219089
268 2 7.827 17.2853 41.8303 -0.29239 -0.773488 -1.69943 0.11548 -0.325527 0.0678961
269 1 19.6294 52.1084 16.9362 -1.38475 0.800408 0.440716 -0.39998 6.52779e-04 0.426754
270 1 51.0239 21.5628 45.6829 1.52712 3.47201 0.417021 -0.020583 0.170475 -1.00719
271 2 6.34791 0.574259 26.5596 2.63954 -0.56602 1.22165 0.757599 -0.174426 0.0905972
272 2 19.9366 23.0581 9.83574 1.1551 -1.1446 -1.39207 0.0136177 0.203896 0.0419431
273 1 7.77468 27.5488 11.0309 -1.28258 2.24857 -0.671999 0.326806 0.251592 -0.588411
274 2 2.33322 35.8221 6.27735 -0.663647 -1.02998 -1.67671 0.0968391 0.153285 -0.0524613
275 1 33.8607 52.8381 38.6907 1.56218 0.460737 4.43272 -0.463946 -0.171143 0.0641035
276 1 18.3712 31.7974 43.2496 -1.57953 -2.09594 1.9371 -0.54952 0.0596126 0.131462
277 2 34.474 19.4704 39.6963 1.09416 -0.97517 0.319116 -0.0901718 0.604816 0.497135
278 1 15.5454 22.1683 44.4069 -0.23916 -0.795847 2.19426 0.023478 0.874805 -0.114944
279 2 10.7518 1.24194 53.8015 0.294852 -1.77594 -1.10871 -0.00713843 -0.0446403 -0.298948
280 2 2.59163 59.1101 38.8273 -1.84608 0.275682 -1.72336 0.0304439 -0.254235 0.0762438
281 2 12.0341 29.3254 2.26286 1.26076 -0.451956 0.215966 0.00363545 0.347695 -0.015529
282 2 32.1469 2.8594 12.096 1.03129 0.0999553 -0.180546 -0.351052 0.396423 0.130381
283 1 51.5765 43.2731 2.70659 -3.13943 0.348027 -1.62921 0.346823 -0.233435 -0.360609
284 2 42.8694 20.5518 35.7159 2.01091 0.30715 -1.18798 0.538817 0.166852 -0.352651
285 1 58.6073 21.2207 18.667 -3.02751 1.21297 -3.61143 1.07242 -0.467732 0.56988
286 1 3.81685 52.1383 47.6157 0.363416 0.741712 0.456845 -0.543675 0.00820551 0.275085
287 2 23.8058 0.66354 8.91098 -0.0458922 0.579098 2.96063 -0.0215049 -0.102841 -0.0440039
288 2 56.7592 30.5335 35.5791 0.782853 -2.46491 1.50914 0.744843 -0.520186 0.36973
289 2 16.059 53.8439 31.0112 -0.566296 1.50899 0.70177 0.199603 0.433125 0.433999
290 1 55.873 13.5332 46.1991 0.675279 -2.64558 4.48606 -0.228774 -0.241295 -0.147067
291 2 52.4649 6.65697 55.561 -0.701629 -0.34719 1.78085 0.235171 -0.149332 0.0165269
292 2 38.6715 4.75549 7.84327 1.79511 -0.616002 -0.0363231 -0.113567 0.528283 -0.128004
293 2 2.81901 56.1135 39.9449 2.99218 -3.13204 -2.12719 -0.112318 0.0929107 -0.198329
294 2 6.52328 54.9305 31.715 1.10873 -2.54359 1.41815 0.147316 0.202045 -0.519581
295 1 3.96829 33.7784 20.8183 1.80704 4.06954 -1.24081 0.0977704 -0.204472 0.113761
296 1 41.3046 2.31974 20.5584 1.57241 0.23121 0.460665 0.552265 0.345539 -0.377979
297 2 52.4769 28.5537 27.4269 -1.99736 2.47547 -1.26659 -0.379204 -0.368745 0.14743
298 2 25.9755 51.1807 43.3056 -1.42478 1.25202 0.270787 0.493075 -0.553106 -0.709654
299 2 46.1301 20.4767 35.0333 -1.2036 2.83164 4.50127 -0.0396664 -0.398602 0.717716
300 2 42.4346 47.7485 14.9823 -0.397793 0.277764 2.02412 0.176346 -0.0975978 0.101233
301 1 14.5577 47.3326 28.0495 -0.965601 1.63544 1.31292 0.410056 0.0672066 -0.092185
302 1 53.3026 13.2539 27.0943 2.27551 -0.751142 3.71806 -0.621105 0.726346 -0.111361
303 2 10.7758 51.4055 9.88479 -1.45457 -2.07278 -1.67235 0.233871 -0.0670349 -0.208614
304 2 3.53473 8.26508 14.0561 0.642849 -1.80506 -1.5994 0.536547 -0.435399 0.339402
305 1 55.7141 41.0508 8.89298 -1.82564 -0.0949208 -0.0450906 0.0708955 0.0494263 -0.139575
306 1 57.5542 17.7681 46.8992 -0.358272 1.22024 0.13766 0.732757 0.0658517 0.798019
307 1 8.72849 48.5206 53.6859 2.01637 -3.74253 0.128269 -0.309682 -0.194518 -0.283369
308 1 50.6357 39.1665 22.1238 2.07118 2.60923 -1.22433 -0.612411 -0.0728201 0.372593
309 1 1.45484 27.7522 18.3403 1.98537 3.48335 -3.71514 0.18947 0.321517 -0.205679
310 1 27.9899 40.6362 6.53052 0.41901 0.128277 1.76002 0.315082 -0.70282 0.186298
311 1 4.26712 56.6584 32.5794 0.67058 -2.8147 -2.77372 -0.0374384 -0.267014 -0.199504
312 2 5.68323 30.6546 50.6859 0.0850067 -1.06317 -0.809569 -0.385418 -0.365645 -0.796292
313 2 9.80117 36.6963 6.71368 -2.93116 1.49496 -1.76977 -0.410056 -0.0624666 -0.264886
314 1 28.1868 56.3162 8.53755 1.66907 -2.30483 4.78382 -0.296545 0.245089 0.0198646
315 1 4.57958 52.8274 15.6226 0.366506 -0.580621 0.796817 0.170497 -0.00738572 0.0069157
316 1 6.72556 3.28629 37.4662 -0.774897 -0.893074 0.098256 0.181517 0.22121 -0.456322
317 2 29.9895 49.3815 9.42108 1.39112 1.03103 -1.90464 0.218762 -0.77299 -0.606099
318 2 58.5679 50.2862 9.04597 -0.116267 -2.60231 1.73679 -0.242161 0.625186 -0.508612
319 2 47.4768 5.44545 13.245 1.8322 -1.87694 1.29679 0.649929 -0.272908 0.070687
320 1 8.35179 53.6107 5.34795 -0.877995 -5.28682 1.75942 0.300764 -0.00143908 0.497296
321 2 23.1123 57.0437 47.4898 2.04446 -0.0474506 0.620443 0.356107 -0.924879 -0.059254
322 1 10.3555 31.4179 53.1757 -0.1321 -0.753899 1.16548 -0.272759 0.0914352 0.586047
323 1 38.6392 34.3584 13.9972 2.1775 -1.72378 -2.88661 -0.0545903 -0.491443 0.353984
324 2 57.4684 13.2181 4.93252 1.11096 0.320556 -2.07648 0.473276 0.257771 -0.296689
325 1 17.7214 3.96492 48.9129 0.0357502 -1.36118 0.690695 0.0516921 -0.0516236 0.187466
326 2 26.8038 2.40131 57.4028 -1.03436 0.77436 -1.27039 -0.13938 -0.0836911 -0.169995
327 2 27.0432 40.8755 21.9373 -1.87342 -1.25685 -1.95009 -0.12459 0.281276 0.0345858
328 2 32.7474 31.899 31.5984 1.00123 4.43015 1.06439 0.155093 -0.135324 0.232031
329 2 39.5571 3.99868 50.7049 -3.07075 -1.0848 0.40006 -0.404554 -0.136704 0.290081
330 2 48.7699 52.681 7.05035 -0.305111 -2.23633 0.549021 -0.315611 0.0996465 0.169361
331 2 36.3139 16.4815 24.4307 -0.170138 0.809835 2.79503 0.674609 1.22589 -0.536495
332 2 2.46484 17.9293 34.0892 -0.942905 1.58898 1.41939 0.059344 -0.0954458 -0.46643
333 2 47.959 2.74763 11.4096 -0.814804 0.0261344 3.36917 -0.405363 0.131863 -0.229688
334 1 55.6777 12.7962 2.36705 3.48892 -1.2102 -2.18066 8.81101e-04 -0.264763 -0.282988
335 2 33.0916 55.6542 50.3827 -0.840304 -1.15534 -1.82924 0.180848 0.15071 0.351739
336 2 17.8707 13.0883 34.8049 1.42855 -1.08919 0.290579 0.0393202 0.363647 -0.161156
337 1 8.67478 4.07909 4.02962 2.00811 3.21335 -0.411458 0.573945 -0.0284896 0.384392
338 1 11.201 46.1138 28.2869 2.61716 0.221483 0.0844623 0.48373 0.42449 -0.0586968
339 2 11.7302 24.4779 51.9467 1.60988 -0.136976 -0.368375 0.653023 0.225701 0.56344
340 1 30.4141 42.4481 57.1966 1.89592 -0.289477 0.780647 0.632368 0.0628558 0.438803
341 2 57.8288 32.2653 53.6714 -0.195988 -1.09774 0.82511 -0.0383097 0.197304 0.125581
342 1 20.4081 29.2159 0.0855872 -1.03753 2.03726 1.61297 0.438429 -0.202487 -0.104646
343 1 54.1508 18.7647 57.1449 -0.884317 -0.0950067 0.0967694 0.167204 -0.197465 0.078211
344 1 20.2878 25.1914 58.3517 3.78525 -0.772252 -0.158505 -0.283683 -0.623087 0.170521
345 1 44.2931 32.1849 23.547 1.58954 -2.87165 3.14049 -0.320587 0.295177 0.448773
346 1 50.6954 2.97144 30.7505 -1.30665 2.83208 -0.3725 -0.107898 0.121504 -0.0799706
347 2 53.6487 43.1525 0.379357 -2.06597 0.105526 0.530089 -0.574365 -0.0906401 -0.248871