ITEM: TIMESTEP
22000001
ITEM: NUMBER OF ATOMS
11664
ITEM: BOX BOUNDS pp pp pp
-0.0155588 59.4156
-0.0155588 59.4156
-0.0155588 59.4156
ITEM: ATOMS id type x y z vx vy vz fx fy fz
1 1 33.6003 8.93008 26.3239 -0.735535 -1.06138 0.810149 -0.626677 -0.330954 0.36963
2 2 36.4933 38.4912 24.873 -1.90838 1.13139 -0.380407 -0.269918 0.049735 -0.100624
3 1 23.8849 5.07301 59.4123 -2.02901 0.114117 0.909072 -0.588614 0.277635 0.173772
4 1 9.74499 54.0109 21.993 -0.536995 -0.677761 2.16882 0.733304 0.676213 -0.0709269
5 1 15.1635 7.91426 13.0669 0.259719 3.30189 -0.71847 0.4021 0.0914256 -1.22002
6 2 35.9665 39.0533 0.456242 -1.75026 -0.319164 -1.0854 -0.303008 -0.0910096 -0.13363
7 1 20.1477 1.89058 13.8302 1.12583 -0.122873 -1.76944 -0.138628 0.463133 -0.0636003
8 1 19.0332 28.8153 20.692 2.32438 -0.479382 -3.82563 0.24327 0.454605 0.202495
9 2 43.7627 59.1734 9.9044 1.31636 0.605601 2.29642 -0.0557154 0.387215 0.0389564
10 2 54.9762 11.7417 9.56359 1.36991 -1.2487 0.573432 -0.310732 -0.475731 0.26583
11 2 33.8451 26.7968 19.5487 -2.83435 0.932944 -1.21077 -0.280507 0.161326 -0.105428
12 2 22.9552 55.2971 16.1068 -0.587709 -1.04639 0.70082 -0.654334 -0.292638 -0.189814
13 2 15.966 22.4931 18.2907 0.179164 3.2314 1.87312 0.171089 -0.416541 0.0162813
14 2 20.235 5.41219 7.57681 0.823508 -0.888279 0.920177 -0.169862 -0.322933 0.0670433
15 2 52.6209 6.6764 36.6891 0.63253 -0.235096 -0.814313 0.965883 -0.42259 -0.0445774
16 1 39.6824 42.6052 53.4254 -0.357876 -2.02485 2.33137 -0.527144 0.255323 -0.0630114
17 1 27.0418 23.0958 23.7115 -0.0539614 0.469254 -1.63529 0.35495 -0.00351428 0.00436007
18 1 0.671943 46.1293 47.0556 0.193845 2.751 -0.0931023 0.718325 -0.50562 -0.173949
19 2 33.4651 10.9905 46.229 0.666151 -0.148224 3.81038 0.169924 0.442205 -0.445303
20 2 1.5765 30.4436 55.2946 0.847685 1.72181 2.662 -0.0589886 0.161542 0.333752
21 2 4.00041 23.2411 45.2622 -1.66757 -2.60857 -1.06309 0.418913 -0.79351 -0.159728
22 1 22.68 5.17172 14.9782 1.80247 -2.02733 -1.4499 0.38782 0.150365 -0.373639
23 1 51.9597 3.00298 28.3964 -6.53224 -0.863585 4.29374 -0.0339004 -0.14786 -0.10483
24 2 22.5005 5.84109 11.3911 0.905199 -0.797727 1.42414 -0.335774 -0.21423 -0.251636
25 1 58.9936 12.0804 25.3801 -2.39944 -1.43176 -0.156569 -0.0120715 -0.31668 -0.207812
26 1 39.0426 16.7254 22.6336 -0.748067 -1.11923 0.965621 0.0700493 0.355228 0.432522
27 2 56.4461 47.8571 16.6114 -0.0988388 1.73954 -0.0684906 -0.545597 -0.485479 -0.344192
28 2 31.5388 14.6387 25.1073 2.86655 -1.74503 -1.66972 -0.485423 -0.120772 -0.242002
29 2 35.5775 58.1487 50.0928 0.845574 -0.921397 -0.575024 0.205454 -0.886304 -0.538245
30 1 39.5418 24.8062 23.3457 1.37127 -0.766078 -0.191003 -0.0851717 -0.106611 0.347878
31 2 56.4125 24.907 12.363 0.469441 0.341018 -1.35312 -0.900641 -0.00552706 -0.088355
32 2 10.8258 32.2627 3.65469 0.875056 0.793859 0.709641 -0.964948 -0.534167 -0.670022
33 2 36.7545 13.3875 41.0047 -1.58226 0.905169 0.470582 -0.273422 0.5424 -0.476785
34 1 23.2473 53.0854 32.1528 -0.0262491 -3.81607 -1.18754 -0.23123 0.504408 0.460869
35 1 55.7993 15.5224 31.1918 -1.67077 0.936012 1.67383 0.647711 -0.228422 0.109517
36 2 48.5358 49.7458 31.7014 2.87214 1.12614 -0.0871473 0.408919 0.386427 -0.031311
37 1 33.0116 17.4007 31.7263 -0.442549 -1.07845 0.758191 -0.0730576 -0.194585 -0.0119392
38 2 44.567 15.2007 11.2314 1.62338 -1.60104 -0.360987 0.220829 -0.0725854 0.0477587
39 1 53.827 55.108 18.4396 1.01263 4.70837 -1.4678 -0.704825 -0.268143 -0.249296
40 1 29.371 54.8668 24.9762 0.0151616 -0.751063 0.155082 0.710862 0.144523 0.562841
41 2 50.6629 51.9116 55.0851 3.09603 -1.03264 1.43059 0.0812353 0.032963 0.29114
42 1 44.3788 2.94878 53.8742 -1.24875 -0.241538 -0.419472 -0.0966897 -0.200593 -0.280215
43 1 5.2354 11.4688 45.5021 1.31878 1.27268 -1.35441 0.265142 -0.23922 -0.0447878
44 2 42.2028 38.8182 33.5432 2.07471 -1.50704 -2.05281 -0.0225637 0.128927 0.908034
45 2 44.768 37.9391 31.964 -0.269507 -0.713738 -0.731162 -0.432054 0.0727621 0.0362939
46 1 41.4549 58.1496 55.7804 -0.0094366 -2.53149 -0.426504 -0.393933 0.0748076 0.169316
47 1 48.2554 12.603 24.3672 1.13727 1.17034 0.983674 0.305041 0.0154897 0.186101
48 2 40.161 46.3366 38.6047 -2.44352 -0.457196 -3.48361 0.785326 -0.649428 -0.0906926
49 1 27.6741 51.9681 45.1975 -4.49986 0.510516 0.13757 -0.0717228 0.268558 -0.447293
50 2 19.3723 47.7365 56.5785 -0.263766 -1.90548 -0.438903 0.0964983 0.46376 -0.206454
51 1 15.532 2.65733 45.5944 -0.360841 -0.334778 -1.19641 0.266883 0.252977 0.202438
52 1 18.718 45.6376 49.2171 -1.41522 -0.498664 2.14979 0.185669 -0.224937 -0.265208
53 1 10.6849 27.6089 6.65193 1.29893 0.396578 1.41732 -0.00765363 -0.235706 -0.0160489
54 1 32.7655 12.878 52.9559 -0.296951 3.21947 -0.403348 0.206863 -0.518642 0.410975
55 2 52.1648 25.5443 29.3443 -0.200319 1.23431 2.04266 -0.381663 -0.109699 0.333624
56 2 22.131 59.2598 56.3847 0.740509 1.50046 2.13771 -0.319923 -0.00522627 0.00343266
57 1 45.6459 21.4929 43.8235 4.45407 0.0684215 1.93124 -0.393436 0.208273 0.184662
58 2 37.5035 54.0924 55.4671 1.10839 1.13762 -2.07561 0.680348 -0.330797 1.07538
59 1 20.2244 4.26563 2.69373 -0.680975 -0.125927 0.439309 0.327699 -0.211953 0.0918512
60 2 10.6094 9.36412 17.8186 -1.72893 0.309275 -0.624471 -0.104908 0.477868 -0.300114
61 1 24.3662 39.6663 22.3674 2.10802 -1.05744 -4.05784 -0.0704602 0.0941155 -0.00742924
62 2 57.6272 26.6483 1.28929 -0.226688 0.667862 2.44216 -0.0762514 0.0422313 -0.0528507
63 2 50.1695 22.8645 40.8903 -3.14076 -0.480658 3.41267 -0.447919 -0.217818 -0.160061
64 2 5.65401 32.2692 29.8414 2.38297 0.464417 2.26915 -0.160701 -0.110821 0.124112
65 1 27.5395 15.0991 13.53 0.843459 -2.56984 1.0523 -0.495019 -0.119043 0.478072
66 1 37.5233 25.3702 31.2375 1.89192 5.24632 -0.0515714 -0.57487 -0.464977 -0.249545
67 1 36.0284 34.7641 52.6279 -4.82755 1.11751 -0.616938 -0.357999 0.293759 0.357323
68 2 43.8704 46.0489 57.8244 0.460162 0.890846 2.3835 -0.60122 -0.451895 -0.0850836
69 2 23.5824 55.7439 30.517 0.889504 -0.854296 -3.07425 0.323203 0.65048 -0.947069
70 2 16.3049 17.4103 18.066 1.60954 -1.60523 0.104522 0.875016 -0.776527 -0.0282757
71 1 20.381 4.61906 10.1655 -1.40565 0.0608664 1.27785 -0.646328 0.0814309 -0.211259
72 2 5.00948 42.5818 12.0796 1.14144 0.453559 2.11714 0.0160832 0.0620056 -0.261882
73 2 42.9925 12.6888 50.3416 0.353951 -1.60068 -0.635084 0.427185 -0.01774 0.171556
74 2 26.7311 22.0532 50.009 -0.59661 -1.24092 1.24699 -0.205207 -0.171689 0.280919
75 2 29.7282 57.5625 31.7946 1.29686 -0.0470195 1.2929 -0.394523 -0.950546 0.0902182
76 2 19.8219 55.2551 56.3932 -4.18904 -2.47458 -0.71521 0.664636 0.919384 0.64147
77 2 12.9962 22.3454 27.867 0.521559 2.7247 -2.22229 0.174603 0.479467 -0.047166
78 1 3.42325 19.759 19.6233 1.30852 -0.52215 -5.08483 -0.19883 -0.698577 -0.196793
79 2 51.9745 10.9571 29.6105 0.0282508 -1.66389 -3.01421 -0.808934 -0.27055 0.634824
80 1 10.6395 20.328 23.8746 -3.19229 -1.16019 0.900815 0.00985448 -0.481149 0.0891632
81 2 5.09035 45.748 27.0202 -0.0171271 2.53005 0.0791185 -0.54355 -0.413141 -0.0127554
82 2 31.8408 17.3846 56.0807 -2.33834 -0.0250497 1.51949 0.30963 0.0859792 0.213855
83 2 7.09605 39.4945 31.6926 -2.70004 -0.922089 -1.30991 -0.167736 -0.59798 0.394678
84 2 45.28 27.9327 45.9297 1.93374 -1.90137 0.682739 0.0788228 -0.366881 0.745834
85 2 54.3066 12.5839 52.6086 0.416225 -1.53145 -0.243377 -0.470608 0.412117 0.0727443
86 2 6.95538 10.9294 3.52033 0.0706911 0.121014 4.81175 0.295101 -0.582894 0.319145
87 1 12.0746 11.8747 22.2103 1.91946 -0.761591 0.579814 -0.242504 0.21043 0.172376
88 2 22.0999 59.1113 34.0977 -1.60364 -0.0968071 4.03771 -0.508065 2.92553e-05 -0.734462
89 1 28.2539 12.7402 46.3734 -0.0408861 0.64856 -1.91571 0.714086 0.0761127 -0.67589
90 2 35.2313 55.8874 4.4869 -0.526065 -0.944253 -1.85977 -0.044128 -0.0636539 0.2045
91 2 3.82332 49.3299 21.7262 -1.01228 -1.16061 0.759106 -0.858178 -0.330825 0.37523
92 1 42.3809 7.4243 8.50238 0.387798 1.51279 -3.0427 -0.182306 0.435124 -0.653897
93 2 6.29362 46.7542 18.5322 -1.10486 0.12224 -1.5822 -0.598019 0.0805342 0.33999
94 2 6.3047 26.2461 37.399 2.60957 0.214504 1.95107 0.0961362 -0.169547 1.16577e-04
95 1 26.1995 42.515 52.5083 -3.81601 -2.16102 -1.32759 0.286484 -0.30772 -0.104852
96 1 7.95326 36.5275 27.8197 -3.16969 0.148678 -1.65718 0.416846 -0.980704 -1.41237
97 1 0.336342 2.41006 58.1016 -0.759321 1.29237 -0.457875 -0.524604 0.164824 0.0639207
98 1 18.5038 33.1056 1.49008 -2.08359 2.26112 -4.20219 -0.0544133 -0.0455432 -0.119556
99 1 53.773 1.90096 51.9524 1.87767 2.44443 -2.80521 -0.00476422 -0.282049 -0.0469979
100 1 12.2073 40.5102 57.1795 1.06975 -2.86974 1.37992 -0.124852 -0.115594 0.290632
101 2 5.49089 44.5985 40.3329 2.37665 1.66619 3.57309 -0.177972 -0.257933 0.414287
102 1 18.5945 6.53764 49.5577 -1.19304 0.00162208 -4.03569 0.496306 -0.536922 0.204503
103 2 40.6867 31.0546 34.7403 1.42844 -0.62276 -0.969464 0.00611188 0.155797 0.558756
104 1 47.6919 24.1103 20.051 -1.88524 -1.62018 6.63125 0.151644 0.0165536 0.41754
105 2 33.0283 39.9197 20.4099 1.79989 2.39248 -1.7459 -0.0461229 -1.21059 -0.126106
106 1 30.7271 0.351992 2.15948 2.14375 1.57292 3.08843 0.555401 0.432435 -0.0418354
107 2 56.6857 16.8538 26.5427 -1.63882 0.703495 2.28935 0.533967 0.262507 -0.124965
108 1 5.6137 27.9215 27.6627 1.59291 -0.358965 -1.2778 -0.278421 -0.369908 0.354102
109 2 32.1468 20.2675 22.4307 1.09327 -0.463211 -0.0935561 -0.143393 -0.724392 0.13879
110 2 37.5849 0.277293 30.3515 0.0364831 0.661223 -0.769687 0.153043 0.33323 -0.196261
111 2 8.73046 55.6183 24.1382 -0.297962 1.92817 -1.79297 0.328563 0.0164767 -0.45605
112 2 54.5075 30.611 20.325 -0.514093 1.07189 -0.520343 0.3648 0.059128 0.499096
113 1 20.4588 15.5778 52.4938 -0.572275 1.54759 2.26599 -0.534535 -0.0448267 -0.0530438
114 1 14.7022 13.0439 31.1343 -1.97447 -0.125893 -2.56084 0.0652246 -0.362044 -0.460064
115 1 46.324 47.5348 57.9968 3.65986 -6.14699 0.890629 0.116072 -0.0597556 0.0335854
116 1 45.1642 42.903 22.0659 -1.05633 -0.593726 -1.03073 -0.509551 -0.556873 0.410895
117 1 23.6692 27.6788 31.8053 1.67973 -1.04185 1.15192 0.0175325 -0.159003 -0.132753
118 2 1.98903 47.1996 56.7609 -0.92353 -0.510471 -0.724383 0.391571 0.347973 -0.512091
119 1 52.4196 57.4467 39.5893 1.52359 -2.17554 -1.73789 0.214485 0.178853 0.851633
120 1 41.5 0.226461 52.0725 -1.59534 0.86904 -1.91998 0.586907 -0.221058 0.828491
121 1 23.9999 41.1806 38.0347 2.35371 1.05311 -2.34627 -0.335958 0.16595 -0.594686
122 2 53.5912 36.2175 33.4723 -0.924497 -0.948695 0.361905 -0.0847412 0.183461 0.347312
123 1 2.86569 12.4635 42.1467 -0.345837 2.15774 -1.02731 -0.223083 0.31017 -0.226471
124 2 39.3299 26.4474 46.8576 -0.216417 1.75495 -2.15568 0.00466574 0.176993 0.355661
125 1 51.0029 14.3155 40.9636 -0.857709 0.525904 -2.79579 -0.342903 -0.157655 -0.0782596
126 2 43.4809 39.275 36.4225 0.744517 2.52813 1.40017 -0.409417 0.760883 0.257585
127 1 7.48142 40.8955 36.6863 -4.28335 3.6993 -1.15387 0.0307165 0.0348609 -0.0164049
128 1 11.8063 15.9688 22.5152 -1.28409 2.3627 -0.164739 0.168601 0.388105 0.112661
129 2 18.1785 3.05138 7.48348 -2.46313 1.00862 -0.83522 -0.591822 0.303351 -0.388369
130 2 55.7505 16.3998 48.2776 -4.4288 0.716038 -2.97742 -0.377057 -0.467575 0.290282
131 2 20.5201 37.4462 41.1178 -1.19119 2.00872 0.207451 0.323105 0.169337 0.245915
132 2 34.5124 8.52528 9.25538 -0.584445 1.8348 2.42718 0.112392 0.503393 -0.492157
133 2 46.2155 21.3831 38.1941 1.5693 0.309899 -0.294897 -0.024777 0.302546 -0.252102
134 2 58.6555 48.991 18.2189 1.24875 1.86992 1.22179 0.536941 0.786142 0.184293
135 2 16.476 54.1303 15.9898 1.00058 3.31459 1.04423 0.417903 -0.111471 0.429344
136 1 53.0528 17.8875 14.7239 -0.0524082 -1.58365 -1.3407 -0.184454 0.0116939 0.396531
137 2 5.09241 44.9299 2.32338 -1.49586 -1.20359 -0.987536 0.418639 0.0307715 -0.386836
138 2 42.8449 20.8818 18.1664 -0.158699 -2.68061 1.83872 0.763301 -0.177971 0.254917
139 1 10.9959 24.1541 42.2727 -2.05265 1.23396 1.19175 -0.274915 -0.443661 -8.75534e-04
140 1 3.59086 8.06758 50.8219 -2.52078 -1.75606 -1.57639 -0.613833 0.0695094 -0.353562
141 1 39.053 42.5862 10.5376 -0.664887 1.16484 1.0363 0.595786 0.786323 0.247616
142 1 16.6641 31.2792 38.1724 0.0338681 0.92869 4.00235 -0.0995242 0.175904 -0.245931
143 1 56.048 19.5259 1.75146 -1.22285 1.14636 -1.48882 0.515522 -0.133079 0.394555
144 1 45.0603 8.72674 1.95427 -2.5675 1.83731 0.883141 0.178253 -0.492927 0.298638
145 2 16.3364 27.1759 41.746 0.79216 2.08188 -1.90893 -0.068778 0.241883 -0.361968
146 2 48.0628 25.1061 41.7352 0.734876 0.698526 -2.5567 0.404242 -0.409828 -0.154147
147 1 36.3264 43.1204 50.034 0.697272 -3.89752 -1.45945 0.652277 0.100438 -0.199837
148 2 49.5967 49.7504 20.3296 0.948875 1.75174 1.73994 -0.764768 0.480392 -0.395699
149 2 28.27 48.3199 57.0235 -0.68849 -1.94495 -0.737339 0.0314692 -0.175246 -0.206947
150 1 40.9649 12.3843 17.0842 0.200515 -0.453736 -2.1318 -0.239827 -0.102908 -0.233576
151 2 1.09683 30.4219 42.1838 -1.07659 2.10052 0.688587 0.503327 -0.378072 -0.296812
152 2 45.0609 29.5312 32.4704 -0.373194 0.951407 1.93416 -0.173007 0.0760992 -0.319546
153 2 2.08552 59.4045 3.27302 2.59468 0.572433 0.784643 0.279672 0.166477 0.629759
154 1 33.772 6.63092 40.3816 -1.18925 -3.44851 -2.50786 0.377575 0.417304 0.163586
155 2 4.56926 56.8225 18.3466 0.516905 0.215718 -0.0725891 -0.493493 -0.0330289 0.310714
156 2 5.58542 6.55022 55.9803 -0.312177 -0.753458 -1.2792 -0.140958 0.54851 1.84559
157 2 51.3394 43.2695 37.6243 3.50409 -1.27176 0.764589 0.132197 0.390712 0.293017
158 1 26.9401 9.42554 24.6023 -1.66109 -1.75464 -0.203614 0.315361 0.298131 -0.511945
159 2 50.0621 19.8709 56.7657 -2.52195 0.130312 -1.12661 -0.0368833 0.519059 -0.573673
160 2 19.6812 55.3127 53.3948 -1.30229 -1.54528 -1.36624 0.686533 -0.118571 -0.282693
161 2 2.40117 25.4301 52.4126 -1.41183 -1.35389 -0.659508 -0.243781 -0.370519 -0.12248
162 1 8.75397 16.2291 27.1996 -2.32292 -3.30945 -3.95076 -0.191196 -0.51437 -0.334127
163 2 5.18489 32.1014 1.4672 1.03897 -0.67637 0.356427 0.156211 -0.471969 0.189262
164 1 28.4182 40.5646 4.04512 2.8897 0.228669 0.907453 -0.582269 -0.081436 0.289334
165 1 29.977 50.4446 25.8925 2.0013 1.65415 3.16003 0.45232 -0.19161 0.284501
166 1 21.2582 45.5373 57.3671 -0.0921198 2.17408 2.9999 -0.426788 0.11359 -0.127233
167 1 20.7833 9.75753 8.79919 2.78562 2.78286 0.257015 -0.52054 -0.0911912 -0.895364
168 1 54.9822 5.97892 2.45516 -1.65675 0.912785 -1.25875 0.175435 -0.239063 0.0667169
169 2 8.20635 6.29636 5.75889 -0.392326 1.28749 1.18771 0.136017 -0.148328 -0.113991
170 1 25.8496 30.9401 23.032 0.0337882 -2.31769 0.778769 0.277944 0.0408638 0.413466
171 1 53.2861 4.08172 16.9055 -0.897912 -0.791504 2.08692 0.0200549 0.0766953 -0.549108
172 1 10.3531 37.3988 4.02766 -0.865347 1.28573 -1.56395 0.222741 -0.221451 -0.0421749
173 2 47.1522 26.9785 27.5692 -0.812005 1.95852 1.64407 0.225879 -0.706103 0.239749
174 1 14.4252 14.3838 14.9796 -3.26415 0.457622 -3.44215 0.536708 0.0910412 0.244516
175 2 25.0536 14.4778 18.5553 1.42846 -3.23804 -0.547921 -0.705251 -0.382398 -0.448653
176 2 7.97124 28.9308 50.2471 1.16152 0.410364 -1.02534 0.127833 0.124058 -0.0946434
177 1 49.5184 4.59154 45.7328 1.43122 -1.61617 -1.27843 -0.200649 -0.00848072 0.802092
178 2 32.6118 51.5983 6.99828 -0.479712 0.96159 -3.04178 0.222227 -0.29707 -1.07366
179 1 58.4195 9.46556 12.8964 4.32147 2.30533 -0.46117 -0.0649887 0.263373 -0.152939
180 2 51.2016 53.7672 1.27373 0.236517 -0.557868 -0.38392 0.293952 -0.306032 0.054581
181 2 9.59806 30.6754 13.6781 -0.39685 -0.15532 -1.23047 0.321726 -0.0169547 0.0754496
182 1 38.4612 50.9025 9.74535 1.3148 -1.13536 0.373291 -0.140295 0.410675 0.0841715
183 2 2.0183 40.8514 3.06122 -1.88779 -2.55365 0.569578 -0.118109 0.558526 0.0674336
184 2 13.7015 21.9489 56.7985 1.18061 -0.252692 -2.04087 0.0984318 0.446254 -0.410584
185 1 26.8154 11.3503 35.4303 2.63093 0.269569 1.52867 -0.434392 -0.0436782 0.394889
186 2 51.9997 2.57214 47.321 1.94744 1.17411 -0.985974 0.368453 0.300615 -0.691672
187 1 43.6107 22.0976 45.5153 2.62591 -1.23378 0.937672 0.335483 -0.00474962 -0.207101
188 1 31.0401 9.48627 3.91015 0.496566 0.416394 -3.90647 0.324143 -0.132755 0.103679
189 2 25.7553 17.7858 52.6066 0.380216 -2.4875 0.0422522 0.220087 0.0563743 0.173185
190 2 13.3294 41.0347 11.7517 -3.37172 1.91669 0.315651 0.268968 -0.42146 -0.0505763
191 1 28.0657 46.6217 50.6574 -0.778778 -2.46553 0.109457 -0.278359 -0.192583 0.0784175
192 2 1.08935 10.4072 15.2592 2.0405 2.01881 -2.18423 0.875133 -0.317043 0.56522
193 1 57.186 42.1027 33.3002 2.39324 -1.07675 -0.338467 0.553552 -0.398167 0.483674
194 1 11.491 50.1946 18.9872 0.874134 -3.47353 0.257323 0.023806 0.575579 0.449812
195 1 51.8133 28.1922 42.4677 2.26095 -2.61688 -2.18216 -0.520446 -0.300521 -0.195763
196 1 16.0607 56.1018 29.4965 -0.677401 -2.37404 -1.92381 1.02987 0.392602 1.20763
197 2 32.1688 0.521591 59.139 -0.213896 0.319814 0.141137 0.393824 -0.207724 0.397538
198 2 31.3534 51.7597 0.20571 2.4541 -0.35648 1.24619 -0.552974 -0.480774 0.312487
199 2 11.1315 24.8723 11.1702 1.88893 0.0325756 2.74643 0.226022 0.18906 0.00600367
200 1 56.2227 16.2478 8.5989 -2.78588 -1.40687 -0.813769 0.112251 0.958946 -0.155796
201 1 8.56292 56.0495 4.71043 5.83846 0.260342 -1.53284 -0.351434 -0.0443042 -0.507763
202 2 4.78276 12.1084 40.445 -1.541 -1.64431 0.108598 -0.335944 0.0765237 -0.157002
203 2 57.5011 11.8425 33.4457 -0.903079 -0.272705 -0.773633 0.31412 -0.478337 0.156911
204 1 31.4299 40.269 31.2906 -0.417249 -2.44451 2.12849 -0.102485 -0.195368 0.255268
205 2 20.2545 58.7329 23.836 2.06459 1.01643 1.37216 -0.60792 0.374739 -0.183472
206 2 4.2018 34.6684 3.79129 0.329611 1.52649 0.369045 0.407751 -0.477765 0.182723
207 2 13.3303 51.7201 20.3766 1.18112 -4.44977 -2.05499 0.247419 -0.0108845 0.299947
208 2 53.4781 33.1411 12.833 -0.557134 2.86083 -2.07469 0.020956 -0.390126 0.233016
209 1 19.8992 11.3851 57.22 -0.368922 -0.119844 1.09976 0.394387 0.0315873 0.285791
210 2 2.79564 2.403 50.6849 1.00155 -0.473187 -0.696496 -0.586805 0.371154 -0.555616
211 2 34.3029 16.593 18.1746 -0.319436 1.07986 -2.24382 0.679389 -0.331194 0.0990945
212 1 57.3703 31.2219 30.7199 -2.01653 0.0342773 -1.91003 -0.0752153 0.357551 0.0287017
213 2 26.3794 14.989 28.5218 -0.263813 -0.97676 -2.15571 0.455369 -0.534118 -0.416869
214 1 40.7733 42.6461 26.2929 0.438342 2.46644 0.728057 0.160499 -0.14552 -0.178186
215 2 51.8589 20.8971 25.6266 -0.242254 0.827909 2.60282 -0.335862 -0.594596 0.409117
216 2 14.8387 49.7107 22.5098 -1.64467 -2.27211 -1.23176 -0.151595 0.0129366 -0.0359891
217 1 38.3508 39.9169 23.5359 1.78878 0.398076 5.60334 -0.0906437 0.534881 -0.183014
218 2 55.448 20.8357 56.451 1.70521 -0.0595939 -1.08435 -0.744265 -0.0844394 -0.288839
219 1 49.82 28.2842 27.592 1.37628 -3.07019 -0.911396 -0.324871 0.513238 0.339414
220 1 41.077 24.6177 45.2188 -2.18142 -3.35696 2.48243 0.177882 -0.00565027 0.168083
221 1 27.6101 49.8855 41.1249 -0.394896 1.20236 -0.0856308 -0.511963 -0.0626691 -0.298512
222 1 54.0852 34.6633 4.86648 1.13894 0.145191 -1.98396 0.124029 0.939504 0.592628
223 1 42.6185 42.9444 6.32148 -0.542639 3.1603 -0.0910262 -1.08578 0.267936 -0.0764674
224 1 9.1205 47.1602 4.25001 1.36759 -0.785194 0.703275 -0.0594052 -0.158116 0.0496804
225 2 33.7479 24.8771 21.626 0.502084 0.367174 -2.0483 0.795469 -0.402518 0.554854
226 2 45.4816 7.02347 56.5598 2.09965 0.661076 0.721777 0.114214 0.609908 0.0333924
227 1 8.4888 8.35426 19.6918 -2.8016 0.0619889 1.42969 0.0154501 0.114816 -0.378496
228 2 0.404582 44.6405 50.1523 0.719228 -1.44833 -2.48362 0.36323 0.0647328 -0.0435598
229 1 18.7789 10.9143 36.4125 -1.01907 0.273905 0.202387 -0.165557 0.428594 -0.339984
230 1 48.6985 45.0689 32.7647 1.01024 3.58008 1.46883 -0.349802 0.183065 -0.248142
231 1 54.5178 25.705 21.7506 -1.57244 1.42393 -0.872289 -0.280126 0.140817 0.38348
232 2 49.1236 0.698501 30.6872 2.37705 -1.32702 -1.19531 -0.217986 0.205351 0.360543
233 2 33.5375 56.2087 7.35509 -0.618745 -0.15493 -1.14823 -0.139799 0.187327 0.102607
234 2 56.0802 54.0283 46.5276 -1.60405 2.20169 -0.0152148 0.839353 -0.0509365 -0.42835
235 2 54.7915 16.0669 10.8472 0.414946 0.828698 1.40971 0.238985 0.229256 0.0965422
236 2 6.7674 29.3554 33.2333 -0.793781 0.60376 -0.402806 0.404705 0.423835 -0.0180035
237 2 57.2581 14.9425 1.64466 -0.183816 -1.30497 0.145914 -0.233172 0.214746 0.384669
238 2 56.4525 31.413 43.3459 -0.675207 1.80094 0.00704914 -0.601619 -0.0561038 -0.257116
239 1 45.6386 16.7638 34.3904 1.70375 -0.234426 -0.359724 0.502167 -0.844381 0.0468238
240 1 45.1751 13.5058 55.7704 0.379893 -0.300906 1.32055 0.390718 0.634998 -0.709976
241 1 52.7994 18.653 36.496 -3.25666 -0.719269 1.44875 0.317509 -0.506897 0.401444
242 2 25.8535 26.0926 17.4285 -2.24345 -0.983032 -3.18216 0.133299 0.49997 0.820139
243 1 32.7434 25.3413 39.1843 1.55817 1.67749 1.91669 -0.784333 -0.321469 -0.530498
244 1 4.69869 32.6526 45.2455 1.40401 3.12161 1.62114 0.560881 -0.220639 -0.244527
245 1 17.9775 44.4666 42.6936 1.03537 -1.00268 -1.33468 0.200053 -0.378135 -0.374662
246 2 58.5698 22.6864 13.2941 -0.476062 3.75977 1.1523 -0.0262357 -0.368131 0.193931
247 2 11.4885 8.42317 26.0552 2.77732 1.61493 0.720606 -0.0113414 0.336804 -0.266442
248 1 15.459 11.7486 25.8468 -0.779552 -0.0450151 1.88821 0.665373 0.718271 -0.384248
249 2 14.0384 21.5613 20.5359 2.91607 0.663473 -0.881305 0.0648458 -0.385383 0.562024
250 1 47.9797 40.7897 55.3779 2.91253 -1.74868 -0.321811 -0.137493 -0.386961 -0.0950003
251 2 29.6673 31.555 8.51617 0.403085 1.31573 1.78301 -0.0389649 0.568354 0.288916
252 1 2.88899 2.44297 32.7077 -3.09867 -1.28864 4.51482 -0.318758 -0.171253 0.339912
253 2 32.4054 26.9663 16.751 1.26898 2.19741 0.661768 -0.571063 0.351912 0.0123047
254 2 34.9099 34.5787 7.653 -1.78836 1.1289 0.719925 -0.474808 -0.388615 0.32439
255 2 30.3385 35.5006 59.2446 -4.06566 -0.123618 -1.88569 0.184393 0.827241 0.135266
256 2 48.6503 14.716 14.5467 0.98647 2.68876 1.80293 0.247244 0.190222 -0.041661
257 2 17.3993 2.17997 43.5231 -1.32173 -1.72245 2.64559 0.231151 0.0332433 0.136324
258 1 45.8044 3.78579 36.8977 1.90656 -2.92839 3.28656 -0.439532 0.257127 0.830912
259 2 35.7619 31.1619 3.2623 -0.317286 0.636748 1.93341 0.540043 -0.436558 -0.739398
260 2 3.57852 19.9582 57.5012 -1.36636 -2.04597 -1.23867 -0.415819 -0.00102399 -0.348393
261 1 52.2498 57.911 14.845 0.247785 0.112067 -1.12348 -0.138558 0.0403246 0.0479486
262 2 33.6051 23.8523 4.55594 -0.836209 0.458817 0.729872 -0.640105 0.51086 0.166616
263 2 10.1202 10.9634 3.12721 1.1807 -1.78115 1.4453 0.447568 -0.0604109 0.0582831
264 2 24.2478 22.8833 51.6094 1.94871 2.55311 -0.236735 -0.0906014 -0.0116417 -0.107661
265 2 16.1799 45.5954 10.9942 1.36277 -0.239827 -1.20468 0.56047 0.533981 -0.268595
266 2 36.3062 33.3732 40.8345 -0.466847 0.925392 1.8719 0.291331 0.0378664 1.18543
267 2 32.3328 54.3424 19.8557 -1.23766 2.16076 2.62533 0.263899 -0.577625 -0.247339
268 2 7.82787 17.2845 41.8261 -0.267495 -0.843119 -1.68483 0.121622 -0.327796 0.0806689
269 1 19.6271 52.1086 16.9381 -1.49761 0.801518 0.568438 -0.337057 0.00320184 0.412239
270 1 51.0256 21.5703 45.6823 1.5191 3.52036 0.114184 -0.0388056 0.132835 -0.988422
271 2 6.35488 0.574992 26.5623 2.79713 -0.604533 1.2422 0.715457 -0.186061 0.0960654
272 2 19.9395 23.0563 9.83426 1.15757 -1.10065 -1.3819 0.00255622 0.21862 0.0628557
273 1 7.77364 27.5536 11.0306 -1.18267 2.32459 -0.849638 0.336456 0.239169 -0.578219
274 2 2.3337 35.8197 6.27552 -0.641909 -0.995327 -1.68831 0.112723 0.180588 -0.0468411
275 1 33.8634 52.8375 38.699 1.41724 0.408281 4.44796 -0.497004 -0.176206 0.0170844
276 1 18.3687 31.7931 43.2527 -1.74258 -2.07709 1.97828 -0.517184 0.0735392 0.13126
277 2 34.4759 19.4693 39.6964 1.07595 -0.848412 0.42496 -0.0887736 0.599266 0.501267
278 1 15.5459 22.1674 44.4103 -0.232665 -0.524407 2.15874 0.0203132 0.915733 -0.128397
279 2 10.7536 1.24024 53.7976 0.294326 -1.78575 -1.17304 3.40305e-04 -0.0370477 -0.302133
280 2 2.58972 59.1087 38.8233 -1.84101 0.221971 -1.70573 0.0289128 -0.255113 0.101059
281 2 12.0377 29.3246 2.26508 1.26016 -0.376382 0.210404 -0.0171617 0.369382 -0.0383744
282 2 32.1488 2.86144 12.0968 0.958019 0.184443 -0.151146 -0.347869 0.401484 0.148609
283 1 51.5689 43.2729 2.70499 -3.03142 0.276904 -1.7369 0.377845 -0.236322 -0.341387
284 2 42.8727 20.553 35.713 2.12267 0.342152 -1.25964 0.505044 0.162057 -0.317249
285 1 58.5997 21.2235 18.6607 -2.69561 1.06931 -3.4316 1.12583 -0.483349 0.629702
286 1 3.8191 52.1383 47.6156 0.197408 0.742633 0.539363 -0.550855 -0.00534407 0.266224
287 2 23.8061 0.666573 8.91825 -0.0503714 0.555602 2.94912 -0.020546 -0.122814 -0.0830769
288 2 56.7592 30.5284 35.5818 0.940768 -2.57187 1.58404 0.742826 -0.47544 0.328851
289 2 16.0588 53.8455 31.0126 -0.52516 1.59936 0.793277 0.192705 0.411674 0.426522
290 1 55.8726 13.5289 46.2069 0.605571 -2.71744 4.44038 -0.233082 -0.220375 -0.173023
291 2 52.462 6.65775 55.5629 -0.65345 -0.3769 1.78385 0.224532 -0.129317 7.60118e-04
292 2 38.6745 4.756 7.8446 1.76926 -0.504648 -0.065156 -0.141859 0.527991 -0.144282
293 2 2.82673 56.1055 39.94 2.9675 -3.1103 -2.16499 -0.139426 0.131908 -0.14581
294 2 6.52704 54.9238 31.7176 1.13891 -2.4983 1.30695 0.130974 0.241749 -0.540268
295 1 3.97361 33.7862 20.8164 1.83406 4.00109 -1.20124 0.0723215 -0.26377 0.152149
296 1 41.3071 2.3221 20.5598 1.73815 0.333775 0.343933 0.532111 0.328725 -0.39255
297 2 52.4713 28.5586 27.4246 -2.07852 2.39597 -1.23547 -0.375516 -0.397996 0.15459
298 2 25.973 51.1816 43.3051 -1.31941 1.13355 0.120329 0.511616 -0.574327 -0.714059
299 2 46.1266 20.4829 35.0421 -1.20932 2.74486 4.65084 -0.00695553 -0.439193 0.66805
300 2 42.433 47.7478 14.9873 -0.361939 0.253627 2.04473 0.164988 -0.132252 0.0809723
301 1 14.5568 47.3347 28.0522 -0.840721 1.65473 1.2821 0.416291 0.0527278 -0.116402
302 1 53.3054 13.2537 27.1019 2.08466 -0.530099 3.68222 -0.645202 0.732195 -0.140668
303 2 10.7742 51.3999 9.88269 -1.4047 -2.08609 -1.71297 0.246481 -0.0459099 -0.164987
304 2 3.53784 8.26277 14.054 0.757 -1.89812 -1.52701 0.538357 -0.432919 0.354664
305 1 55.7088 41.0499 8.89421 -1.80408 -0.0798782 -0.0867388 0.0789243 0.0500208 -0.134432
306 1 57.5519 17.7713 46.8986 -0.135331 1.24061 0.380093 0.736582 0.0630208 0.797506
307 1 8.7338 48.5118 53.6845 1.91951 -3.79497 0.0413704 -0.336726 -0.13458 -0.289306
308 1 50.6383 39.1711 22.122 1.88644 2.58785 -1.109 -0.612814 -0.0792198 0.391987
309 1 1.46071 27.7594 18.3336 2.04165 3.57865 -3.77643 0.172491 0.290827 -0.181832
310 1 27.991 40.6355 6.53561 0.513307 -0.0833201 1.81657 0.303944 -0.690839 0.178468
311 1 4.27011 56.6509 32.5736 0.660241 -2.89355 -2.8298 -0.0335305 -0.239962 -0.157771
312 2 5.68488 30.6523 50.6828 0.003529 -1.14063 -0.976438 -0.385187 -0.359884 -0.77584
313 2 9.79652 36.6989 6.71158 -3.01857 1.47989 -1.8244 -0.398005 -0.0892617 -0.240489
314 1 28.1901 56.3099 8.54851 1.57362 -2.22283 4.78516 -0.339093 0.304753 -0.0316735
315 1 4.58201 52.8248 15.6251 0.415967 -0.582799 0.799083 0.153557 -0.0044478 0.00455964
316 1 6.72556 3.2863 37.4657 -0.720271 -0.824452 -0.0411773 0.181474 0.23444 -0.4621
317 2 29.9923 49.3821 9.41846 1.4357 0.867255 -2.03028 0.193993 -0.781299 -0.569594
318 2 58.5658 50.2798 9.05068 -0.168783 -2.46781 1.62741 -0.25346 0.66216 -0.53593
319 2 47.4794 5.44322 13.2486 1.96777 -1.93416 1.31065 0.620033 -0.256311 0.0522653
320 1 8.35151 53.5985 5.35321 -0.786741 -5.27988 1.90854 0.303819 0.0699718 0.476898
321 2 23.1169 57.0416 47.4899 2.11998 -0.238796 0.607675 0.344993 -0.883306 -0.0652669
322 1 10.3564 31.4163 53.1767 -0.212856 -0.725273 1.34094 -0.258352 0.100287 0.564074
323 1 38.643 34.3545 13.9926 2.15969 -1.87299 -2.77998 -0.0720431 -0.48346 0.360467
324 2 57.4689 13.2199 4.92992 1.20949 0.373979 -2.13953 0.451044 0.245169 -0.286273
325 1 17.7223 3.96386 48.9131 0.053149 -1.37942 0.747673 0.0627029 -0.0626284 0.184686
326 2 26.8019 2.40462 57.3985 -1.06092 0.758297 -1.306 -0.105293 -0.0729244 -0.158691
327 2 27.0396 40.8723 21.9339 -1.89737 -1.19521 -1.94309 -0.0901931 0.309107 0.0436559
328 2 32.7492 31.9077 31.6004 1.03254 4.39994 1.11254 0.13463 -0.177641 0.216493
329 2 39.5502 3.99816 50.7044 -3.15679 -1.11249 0.460701 -0.389628 -0.118343 0.280579
330 2 48.768 52.6751 7.05296 -0.374743 -2.21476 0.585305 -0.340617 0.118003 0.170173
331 2 36.3133 16.4842 24.4365 -0.0256876 1.06842 2.67864 0.691708 1.21311 -0.580857
332 2 2.46475 17.9332 34.0916 -0.92732 1.56887 1.32271 0.0937985 -0.104398 -0.456172
333 2 47.9561 2.74947 11.4175 -0.900692 0.0543134 3.31835 -0.401352 0.134306 -0.271543
334 1 55.6829 12.7948 2.36439 3.48465 -1.28709 -2.25947 -0.0440186 -0.23625 -0.226505
335 2 33.0897 55.6503 50.3778 -0.802054 -1.12196 -1.75347 0.185875 0.171923 0.375723
336 2 17.8743 13.0873 34.8052 1.4368 -1.01358 0.256416 0.029781 0.357705 -0.163536
337 1 8.68034 4.08719 4.03059 2.18168 3.20606 -0.294777 0.560142 -0.0333864 0.385584
338 1 11.2076 46.1133 28.2872 2.76138 0.352267 0.0672423 0.454472 0.435608 -0.0550401
339 2 11.7348 24.478 51.9446 1.74457 -0.091051 -0.249839 0.610036 0.209199 0.559174
340 1 30.418 42.4467 57.1965 2.08174 -0.27134 0.909706 0.58284 0.0578048 0.407523
341 2 57.8265 32.263 53.6715 -0.201999 -1.05342 0.849321 -0.0172906 0.228311 0.0981326
342 1 20.4068 29.2199 0.0907163 -0.908335 1.97442 1.58113 0.416633 -0.220084 -0.111914
343 1 54.1475 18.7652 57.1433 -0.833757 -0.154908 0.120728 0.169487 -0.196499 0.079108
344 1 20.2959 25.1899 58.3495 3.69695 -0.96003 -0.1105 -0.313946 -0.609868 0.146216
345 1 44.2952 32.1791 23.5539 1.49288 -2.78285 3.27323 -0.322701 0.301815 0.411605
346 1 50.6914 2.97889 30.7496 -1.33881 2.86874 -0.394122 -0.0982086 0.10764 -0.0607767
347 2 53.6428 43.1518 0.38228 -2.18559 0.0876504 0.477195 -0.543491 -0.0789643 -0.254329