ITEM: TIMESTEP
22000004
ITEM: NUMBER OF ATOMS
11664
ITEM: BOX BOUNDS pp pp pp
-0.017591 59.4176
-0.017591 59.4176
-0.017591 59.4176
ITEM: ATOMS id type x y z vx vy vz fx fy fz
1 1 33.5944 8.9214 26.3295 -1.29813 -1.35296 1.1421 -0.599117 -0.300929 0.354281
2 2 36.4818 38.4987 24.8702 -2.07247 1.1492 -0.446731 -0.230832 -7.18327e-04 -0.10409
3 1 23.8708 5.07283 59.42 -2.49483 0.39748 0.961108 -0.423212 0.342692 -0.0595441
4 1 9.74237 54.0103 22.0054 0.110977 -0.0911771 2.10839 0.687793 0.610127 -0.0727783
5 1 15.1652 7.9327 13.0582 0.604495 3.30081 -1.7545 0.343566 -0.11555 -1.0258
6 2 35.9558 39.0518 0.447486 -1.94131 -0.411714 -1.16228 -0.283361 -0.198141 -0.0989803
7 1 20.1534 1.8892 13.8183 0.969622 0.296613 -1.84066 -0.209331 0.455532 -0.0827508
8 1 19.0471 28.8137 20.6691 2.5662 -0.0229399 -3.59777 0.272312 0.543871 0.313931
9 2 43.7714 59.1798 9.91688 1.27584 0.854544 2.30156 -0.080793 0.389464 -0.0396047
10 2 54.9855 11.7321 9.56615 1.17474 -1.52997 0.734539 -0.312512 -0.396475 0.235076
11 2 33.8279 26.8025 19.5405 -2.96729 1.0212 -1.27568 -0.11462 0.108207 -0.0895529
12 2 22.95 55.292 16.1097 -1.00555 -1.23144 0.571742 -0.652139 -0.281359 -0.219794
13 2 15.9664 22.5112 18.3012 0.278697 2.94512 1.85216 0.137225 -0.508679 -0.0952643
14 2 20.239 5.40457 7.58092 0.710644 -1.10077 0.94623 -0.191091 -0.337613 0.00846459
15 2 52.628 6.67266 36.6846 1.21796 -0.473951 -0.871005 0.862457 -0.32473 -0.128375
16 1 39.6796 42.5946 53.4408 -0.805936 -1.79392 2.26016 -0.451197 0.260487 -0.105888
17 1 27.0422 23.0982 23.7014 0.258285 0.444284 -1.60448 0.328438 -0.0526716 0.0713072
18 1 0.67312 46.1454 47.0557 0.866922 2.22662 -0.279889 0.752595 -0.653584 -0.231351
19 2 33.4697 10.9891 46.2521 0.760207 0.128162 3.5077 0.11958 0.426626 -0.533947
20 2 1.57957 30.4543 55.313 0.815326 1.82387 2.86168 -0.0482722 0.147699 0.272033
21 2 3.98948 23.2235 45.2566 -1.37806 -3.08427 -1.14912 0.503718 -0.681014 -0.0993488
22 1 22.6914 5.15829 14.9675 2.15158 -1.88367 -1.77455 0.365209 0.173916 -0.329261
23 1 51.9221 2.99562 28.4217 -6.46823 -0.962898 4.16316 0.209975 -0.0627508 -0.202054
24 2 22.5048 5.83426 11.3979 0.678695 -0.933617 1.25889 -0.382948 -0.205722 -0.279022
25 1 58.9812 12.0697 25.3783 -2.39844 -1.69855 -0.349181 0.0276813 -0.259324 -0.211967
26 1 39.039 16.7188 22.64 -0.656012 -0.783934 1.34839 0.134803 0.384286 0.399597
27 2 56.4464 47.8679 16.6094 -0.431913 1.41044 -0.292395 -0.497816 -0.559917 -0.357945
28 2 31.5552 14.627 25.0965 2.54029 -1.7874 -1.80752 -0.560831 0.00147513 -0.178555
29 2 35.5833 58.1434 50.0897 0.956494 -1.4762 -0.90701 0.135801 -0.848876 -0.501571
30 1 39.5504 24.801 23.345 1.26647 -0.88549 0.116191 -0.15019 -0.151197 0.32388
31 2 56.4155 24.9087 12.3535 -0.0914684 0.33786 -1.41858 -0.861028 -0.00725601 -0.108027
32 2 10.8278 32.2666 3.65586 0.207245 0.439796 0.267733 -1.12722 -0.576741 -0.721214
33 2 36.7451 13.3928 41.0074 -1.69497 1.2335 0.183889 -0.0711888 0.48324 -0.428918
34 1 23.2461 53.0656 32.1471 -0.252642 -3.32015 -0.777334 -0.26399 0.596193 0.439104
35 1 55.7929 15.5264 31.2023 -1.06385 0.694398 1.77579 0.688396 -0.305245 0.104989
36 2 48.5551 49.7546 31.701 3.10984 1.35594 -0.0908211 0.314559 0.323684 0.0217613
37 1 33.009 17.3929 31.7309 -0.511984 -1.2411 0.738743 -0.0766672 -0.155764 -0.0340309
38 2 44.5782 15.19 11.2281 1.74954 -1.64238 -0.339329 0.162861 -0.0451405 0.0227741
39 1 53.8328 55.1373 18.4294 0.357955 4.4391 -1.69026 -0.730592 -0.344156 -0.228437
40 1 29.373 54.8644 24.9783 0.637702 -0.616592 0.673476 0.65194 0.154589 0.570188
41 2 50.683 51.907 55.096 3.09852 -1.00395 1.5989 -0.0968912 0.0653736 0.225315
42 1 44.3721 2.94496 53.8726 -1.3136 -0.420721 -0.669728 -0.0392751 -0.190792 -0.265653
43 1 5.24238 11.4745 45.4949 1.56801 1.03849 -1.38342 0.273471 -0.279976 -0.0113664
44 2 42.2161 38.81 33.5329 2.05293 -1.42851 -1.45503 -0.0622213 0.131281 0.985373
45 2 44.7666 37.9355 31.9599 -0.547047 -0.668199 -0.691075 -0.437988 0.0769116 0.095998
46 1 41.4546 58.1366 55.7801 -0.353256 -2.41421 -0.280444 -0.359167 0.194399 0.154269
47 1 48.2643 12.6087 24.3732 1.39524 1.10737 1.12483 0.253356 -0.158094 0.118479
48 2 40.1486 46.3338 38.5843 -1.91891 -0.862577 -3.53572 0.881082 -0.619295 -0.0467073
49 1 27.6468 51.9734 45.1982 -4.53898 0.776938 -0.238607 0.00925884 0.31014 -0.378433
50 2 19.3702 47.7272 56.5773 -0.193098 -1.6024 -0.562625 0.127484 0.502058 -0.17846
51 1 15.5295 2.65414 45.5889 -0.155756 -0.116629 -1.00146 0.181883 0.22559 0.228104
52 1 18.7093 45.635 49.2306 -1.22769 -0.713949 1.88592 0.232141 -0.243732 -0.320932
53 1 10.6913 27.6105 6.65876 1.25039 0.172045 1.37142 -0.10625 -0.25839 -0.0927151
54 1 32.7646 12.8946 52.9562 -0.0267813 2.65204 -0.00813728 0.385812 -0.73887 0.456365
55 2 52.1644 25.5512 29.3571 -0.458015 1.14421 2.23903 -0.428266 -0.183205 0.270448
56 2 22.1343 59.2708 56.3993 0.54382 1.489 2.11377 -0.302747 -0.0411557 -0.0930775
57 1 45.6726 21.4933 43.8365 4.08522 0.240484 2.07514 -0.436491 0.167875 0.118588
58 2 37.512 54.1002 55.4585 1.55574 0.896968 -1.38064 0.712019 -0.435247 1.11806
59 1 20.2206 4.26258 2.69477 -0.35621 -0.30722 0.520133 0.385522 -0.183949 0.083486
60 2 10.5976 9.36547 17.8135 -1.78621 0.598247 -0.826079 -0.0629579 0.428252 -0.328838
61 1 24.3782 39.6609 22.3426 2.00886 -0.944305 -4.01354 -0.157712 0.16062 0.12705
62 2 57.6276 26.6521 1.30186 -0.27906 0.688166 2.38336 -0.0862192 0.0174138 -0.149273
63 2 50.1512 22.8608 40.9112 -3.39071 -0.610104 3.28881 -0.312896 -0.184494 -0.255332
64 2 5.66631 32.272 29.8553 2.24855 0.416229 2.37111 -0.280488 -0.0426094 0.181178
65 1 27.5431 15.0825 13.5365 0.398906 -2.63477 1.48034 -0.481326 -0.0112533 0.453259
66 1 37.5335 25.4 31.2366 1.32437 4.74783 -0.278462 -0.674998 -0.651503 -0.245452
67 1 35.999 34.7719 52.6268 -5.11133 1.40414 -0.2917 -0.23761 0.326951 0.359423
68 2 43.873 46.0545 57.8405 0.0934914 0.604909 2.29951 -0.553913 -0.454169 -0.198748
69 2 23.5879 55.7418 30.4968 1.07197 -0.437829 -3.64557 0.243899 0.659807 -0.826599
70 2 16.3153 17.3984 18.0658 2.1604 -2.07812 0.0920042 0.843229 -0.695487 -0.0115256
71 1 20.3702 4.61791 10.1713 -1.97659 0.118657 1.06929 -0.593603 0.0445871 -0.251936
72 2 5.01465 42.5855 12.0906 1.1391 0.481711 1.93016 -0.0311421 0.0230125 -0.341752
73 2 42.9963 12.678 50.3396 0.594696 -1.58458 -0.512078 0.32595 0.080727 0.217983
74 2 26.727 22.0449 50.0184 -0.707251 -1.35565 1.41486 -0.137721 -0.179413 0.237566
75 2 29.7351 57.5623 31.8026 1.01 -0.639 1.33941 -0.514693 -0.904848 0.0495427
76 2 19.7974 55.2438 56.392 -3.74456 -1.86519 -0.308126 0.762304 1.0102 0.640945
77 2 12.9985 22.3621 27.8535 0.623816 2.9899 -2.22107 0.142393 0.332179 0.0683984
78 1 3.42877 19.7533 19.5916 1.13281 -1.14556 -5.20918 -0.193812 -0.662008 -0.0493285
79 2 51.9746 10.9453 29.5936 -0.479783 -1.84886 -2.58431 -0.783495 -0.297069 0.736688
80 1 10.6191 20.3191 23.8798 -3.14803 -1.59948 0.987795 0.10377 -0.472178 0.0938286
81 2 5.08746 45.7635 27.0204 -0.400938 2.24745 0.0395757 -0.662646 -0.494665 -0.112327
82 2 31.8275 17.3838 56.092 -2.13143 0.0485025 1.62238 0.357356 0.144637 0.0989754
83 2 7.078 39.4885 31.6856 -2.78885 -1.29737 -1.05615 -0.0889227 -0.574022 0.414906
84 2 45.2928 27.9205 45.9363 1.97128 -2.11391 1.13968 0.024315 -0.285116 0.683996
85 2 54.3099 12.5743 52.6088 0.119826 -1.24845 -0.187932 -0.462877 0.488099 0.101365
86 2 6.95481 10.9278 3.54799 0.253827 -0.25297 4.99041 0.279642 -0.593784 0.208722
87 1 12.0843 11.8695 22.2137 1.69375 -0.553199 0.698146 -0.260398 0.249026 0.0826635
88 2 22.0888 59.1127 34.1208 -1.92872 -0.0775595 3.54525 -0.50027 0.058761 -0.842323
89 1 28.2555 12.7431 46.3613 0.614012 0.70729 -2.47291 0.719382 0.0490084 -0.532859
90 2 35.2284 55.8834 4.4744 -0.552171 -0.977085 -1.72721 -0.0341889 -0.0334882 0.226089
91 2 3.81385 49.3236 21.7309 -1.55149 -1.36928 0.986011 -0.827761 -0.316303 0.330717
92 1 42.3835 7.43296 8.48092 0.194876 1.86049 -3.60965 -0.243758 0.316166 -0.569958
93 2 6.28422 46.7562 18.5226 -1.49985 0.166293 -1.35763 -0.63247 0.0575392 0.376359
94 2 6.31892 26.2468 37.4112 2.65499 0.116153 1.94067 0.0264712 -0.140143 -0.04837
95 1 26.1772 42.5021 52.5017 -3.53789 -2.41327 -1.41224 0.341808 -0.232139 -0.0739202
96 1 7.93391 36.5262 27.8058 -2.77959 -0.735235 -2.91656 0.449498 -0.952016 -1.32531
97 1 0.328348 2.41641 58.101 -1.23334 1.445 -0.415355 -0.509184 0.161806 0.030868
98 1 18.4905 33.1193 1.46274 -2.08116 2.21658 -4.2272 0.0703705 -0.0638362 0.085774
99 1 53.7859 1.91295 51.937 1.87239 2.18054 -2.83119 -0.016002 -0.307859 0.0044823
100 1 12.2122 40.4935 57.1905 0.960149 -2.94797 1.64747 -0.119726 -0.0396997 0.288271
101 2 5.50309 44.609 40.3558 2.22236 1.51563 3.80262 -0.323312 -0.227816 0.278471
102 1 18.588 6.5346 49.5356 -0.713138 -0.485503 -3.78113 0.556741 -0.527583 0.372733
103 2 40.696 31.0512 34.7359 1.42162 -0.5219 -0.586408 -0.0375208 0.164514 0.648436
104 1 47.6822 24.1002 20.0912 -1.73762 -1.6028 6.9483 0.180868 0.0315283 0.239007
105 2 33.0393 39.9324 20.3985 1.7715 1.58772 -1.81341 -0.0554649 -1.33385 -0.07312
106 1 30.7415 0.360571 2.17598 2.6231 1.94418 3.02377 0.480126 0.369741 -0.116584
107 2 56.6787 16.8576 26.556 -1.27859 0.853262 2.19028 0.608376 0.202428 -0.202709
108 1 5.62079 27.9182 27.6559 1.30554 -0.70865 -0.954361 -0.356998 -0.391601 0.359294
109 2 32.1533 20.2626 22.4299 0.990272 -0.96628 -0.00721707 -0.180391 -0.839005 0.131474
110 2 37.5859 0.279867 30.3465 0.139365 0.862245 -0.896482 0.16983 0.293728 -0.195954
111 2 8.72786 55.6316 24.1263 -0.091916 1.9119 -2.05616 0.321713 -0.0820035 -0.357088
112 2 54.5069 30.6176 20.3222 -0.264787 1.10126 -0.193294 0.420473 0.0268953 0.534014
113 1 20.4533 15.586 52.5088 -1.03683 1.49787 2.20813 -0.479078 -0.0720039 -0.0852548
114 1 14.6896 13.0411 31.1177 -1.88907 -0.445884 -2.98296 0.132388 -0.337202 -0.448621
115 1 46.3472 47.4993 58.004 3.64894 -6.03577 0.8336 -0.160177 0.344803 -0.166921
116 1 45.1576 42.8989 22.0604 -1.50609 -1.06365 -0.615514 -0.46747 -0.467409 0.501283
117 1 23.6789 27.672 31.812 1.67891 -1.16569 1.02215 -0.0273212 -0.10586 -0.157403
118 2 1.98233 47.1984 56.7575 -0.679081 -0.267856 -1.01229 0.383708 0.41839 -0.388308
119 1 52.4309 57.436 39.5819 1.72094 -2.00222 -0.947425 0.209538 0.210924 0.885399
120 1 41.4928 0.229086 52.0648 -1.05979 0.684204 -1.13213 0.585393 -0.184852 0.896884
121 1 24.0126 41.1882 38.0197 1.99389 1.22738 -2.81886 -0.464592 0.210819 -0.426313
122 2 53.5871 36.2126 33.4754 -0.954362 -0.826368 0.607972 -0.00162342 0.208286 0.421137
123 1 2.86115 12.4761 42.1408 -0.557351 2.44293 -1.21198 -0.239394 0.302155 -0.171781
124 2 39.3293 26.458 46.8465 -0.20559 1.84315 -1.89589 0.029702 0.0862773 0.476495
125 1 50.9982 14.3172 40.9474 -1.16456 0.369745 -2.83544 -0.322816 -0.187074 0.00514522
126 2 43.4856 39.2922 36.4319 0.49057 2.96553 1.55716 -0.393572 0.593395 0.227143
127 1 7.45433 40.9186 36.6799 -4.22213 3.7513 -1.14718 0.125489 0.0617579 0.0367302
128 1 11.7979 15.983 22.5141 -1.09726 2.66605 -0.065002 0.249885 0.261384 0.106353
129 2 18.1619 3.05612 7.47621 -2.80343 1.16031 -1.08044 -0.457543 0.162846 -0.37454
130 2 55.725 16.4022 48.2616 -4.64958 0.388294 -2.76846 -0.284271 -0.568544 0.388891
131 2 20.5129 37.459 41.1203 -0.968454 2.10158 0.355379 0.385311 0.108196 0.217829
132 2 34.5095 8.53571 9.26766 -0.453672 2.09732 2.14205 0.305227 0.304016 -0.417294
133 2 46.226 21.3849 38.1925 1.55889 0.497042 -0.450002 -0.0207259 0.28408 -0.233795
134 2 58.666 49.005 18.2258 1.57229 2.34557 1.32854 0.468421 0.692575 0.140406
135 2 16.4819 54.1516 15.9959 1.24247 3.21204 1.3089 0.334573 -0.234206 0.394533
136 1 53.0536 17.8772 14.7159 -0.208648 -1.56553 -0.963134 -0.156539 0.036226 0.434728
137 2 5.08258 44.9238 2.31486 -1.2104 -1.18739 -1.22393 0.489485 0.0282284 -0.34687
138 2 42.8463 20.8648 18.177 0.335256 -2.77496 1.9781 0.789391 -0.0989384 0.169042
139 1 10.9816 24.1599 42.2807 -2.26261 0.817964 1.17924 -0.173503 -0.472362 -0.0326227
140 1 3.57234 8.05578 50.813 -3.0332 -1.67276 -1.89562 -0.492789 0.122164 -0.33577
141 1 39.0513 42.5962 10.5432 -0.122144 1.87684 1.25974 0.59362 0.764575 0.234582
142 1 16.6631 31.2852 38.1963 -0.0727077 1.04065 3.72298 -0.134308 0.065703 -0.384835
143 1 56.0439 19.5317 1.74172 -0.727914 1.02225 -1.11512 0.572532 -0.143805 0.430129
144 1 45.0465 8.73498 1.95847 -2.37306 1.3838 1.14226 0.261393 -0.509388 0.264588
145 2 16.3401 27.1887 41.7347 0.739361 2.21703 -2.10595 -0.101961 0.165931 -0.242205
146 2 48.0692 25.1092 41.7204 0.960695 0.441735 -2.61485 0.298885 -0.40213 -0.0114503
147 1 36.3328 43.0983 50.0261 1.29995 -3.77306 -1.64351 0.661486 0.192553 -0.194469
148 2 49.6023 49.7632 20.3387 0.458931 2.05079 1.47965 -0.78008 0.443236 -0.436409
149 2 28.2659 48.3092 57.0206 -0.639709 -2.03331 -0.865022 0.128632 -0.0877422 -0.18785
150 1 40.9663 12.3802 17.0699 -0.002879 -0.522103 -2.31479 -0.205994 -0.045916 -0.156206
151 2 1.08934 30.4338 42.1882 -0.776335 1.86115 0.513639 0.448565 -0.387853 -0.256977
152 2 45.0593 29.5371 32.4816 -0.498565 1.00282 1.7058 -0.217172 0.0781845 -0.411927
153 2 2.09971 59.4103 3.27711 2.75233 0.673056 1.17688 0.197035 0.145631 0.596669
154 1 33.7661 6.60982 40.3678 -0.846588 -3.05015 -2.34054 0.379117 0.471341 0.21483
155 2 4.56968 56.8256 18.3459 0.194451 0.185988 0.104851 -0.520892 -0.0618693 0.248568
156 2 5.58165 6.54515 55.9779 -0.391868 -0.410559 -0.12575 -0.110924 0.527324 1.77308
157 2 51.3621 43.2635 37.63 3.55948 -1.0128 0.945703 0.016251 0.434277 0.270755
158 1 26.9309 9.41443 24.5993 -1.29807 -1.48881 -0.672245 0.487795 0.292686 -0.512622
159 2 50.0484 19.872 56.7597 -2.53013 0.461646 -1.48752 0.0302251 0.519813 -0.551062
160 2 19.674 55.305 53.3877 -0.850415 -1.60066 -1.53816 0.74301 -0.0456043 -0.245778
161 2 2.39039 25.421 52.4099 -1.55138 -1.57159 -0.753422 -0.183747 -0.302603 -0.168278
162 1 8.73811 16.207 27.1749 -2.47292 -3.72926 -4.17765 -0.124587 -0.387 -0.141686
163 2 5.18974 32.0966 1.46778 1.13388 -0.971501 0.481568 0.133315 -0.448974 0.200713
164 1 28.4338 40.5665 4.04954 2.3325 0.12067 1.13596 -0.653899 -0.159539 0.20277
165 1 29.9903 50.4555 25.9118 2.41006 1.48781 3.35962 0.431256 -0.180428 0.135596
166 1 21.2559 45.5516 57.3866 -0.485285 2.22336 2.87579 -0.432633 -0.0165267 -0.159983
167 1 20.798 9.77259 8.79688 2.29294 2.67931 -0.541561 -0.573456 -0.147185 -0.850515
168 1 54.9745 5.98209 2.44593 -1.48088 0.675118 -1.19592 0.217135 -0.285232 0.077488
169 2 8.20281 6.3022 5.76412 -0.29617 1.19043 1.09085 0.169837 -0.166296 -0.199282
170 1 25.8503 30.9264 23.0374 0.29728 -2.28651 1.13106 0.298903 0.0396053 0.353652
171 1 53.2823 4.07548 16.9156 -0.872151 -0.692687 1.54384 0.0413502 0.142651 -0.650544
172 1 10.3472 37.4064 4.01641 -0.66575 1.06086 -1.59776 0.217111 -0.275655 -0.0226953
173 2 47.149 26.9887 27.5794 -0.663944 1.49146 1.79338 0.245051 -0.775693 0.216477
174 1 14.406 14.3858 14.9587 -2.77872 0.547722 -3.1742 0.541005 0.101927 0.360869
175 2 25.0605 14.4566 18.5504 0.972445 -3.44304 -0.838594 -0.736358 -0.237432 -0.460433
176 2 7.97697 28.9334 50.2422 1.24371 0.471068 -1.07725 0.119116 0.0629821 -0.0600814
177 1 49.5278 4.58011 45.7284 1.24742 -1.61454 -0.566949 -0.208212 0.0187401 0.757746
178 2 32.6096 51.605 6.97648 -0.332671 0.784303 -3.69254 0.243566 -0.266655 -0.948206
179 1 58.4471 9.47869 12.8921 4.22656 2.51791 -0.567609 -0.165404 0.190428 -0.0775414
180 2 51.205 53.7649 1.26958 0.413185 -0.757091 -0.352988 0.259147 -0.317323 0.0469122
181 2 9.59495 30.6745 13.6698 -0.176241 -0.152076 -1.1576 0.37204 0.0292283 0.161218
182 1 38.4693 50.8982 9.74645 1.1726 -0.764801 0.447543 -0.1789 0.406863 0.0767779
183 2 2.00488 40.8379 3.06296 -1.94496 -2.17433 0.619512 -0.0466204 0.652964 0.0843983
184 2 13.7077 21.9477 56.7873 1.23277 0.0213514 -2.27996 0.0565573 0.416078 -0.323948
185 1 26.8297 11.3506 35.4409 2.21493 0.240431 1.86509 -0.489941 -0.0220059 0.331389
186 2 52.0135 2.57792 47.315 2.1382 1.37755 -1.4074 0.217376 0.329439 -0.625632
187 1 43.6283 22.0896 45.5215 2.90794 -1.2287 0.746004 0.267134 0.022456 -0.216968
188 1 31.044 9.487 3.88539 0.76472 0.28623 -3.71491 0.258746 -0.150742 0.336693
189 2 25.7578 17.7702 52.6088 0.512018 -2.45008 0.155548 0.190734 0.0834172 0.183313
190 2 13.3085 41.0462 11.7522 -3.18668 1.63698 0.278785 0.337469 -0.471677 -0.0690322
191 1 28.0602 46.6076 50.6597 -1.01669 -2.629 0.188637 -0.237207 -0.150567 0.0947586
192 2 1.10131 10.4173 15.2462 2.59309 1.7733 -1.79867 0.843934 -0.470185 0.662384
193 1 57.2037 42.0961 33.2997 2.86197 -1.40892 0.0831249 0.457482 -0.319266 0.43595
194 1 11.4951 50.1768 18.9892 0.883089 -2.92095 0.648598 -0.00917322 0.650721 0.404766
195 1 51.8269 28.1757 42.455 1.75537 -2.84933 -2.31618 -0.596481 -0.193176 -0.0846277
196 1 16.0586 56.0905 29.4883 0.283302 -1.97404 -0.795562 1.05835 0.480197 1.25358
197 2 32.1685 0.521104 59.1426 0.0462586 0.179704 0.406382 0.424087 -0.234665 0.434163
198 2 31.3671 51.7582 0.21175 2.0869 -0.660812 1.43404 -0.619605 -0.473451 0.26918
199 2 11.142 24.8726 11.1854 2.02318 0.141631 2.73266 0.179963 0.153298 -0.0702881
200 1 56.2081 16.2412 8.59223 -2.65053 -0.469815 -0.910302 0.196994 1.09971 -0.0522386
201 1 8.59541 56.0526 4.69814 5.43153 0.165573 -1.98687 -0.569739 -0.163989 -0.476311
202 2 4.7712 12.0975 40.4461 -1.73571 -1.57212 0.00745845 -0.264181 0.162773 -0.161629
203 2 57.4982 11.8387 33.4416 -0.697362 -0.585679 -0.673278 0.339404 -0.501397 0.164175
204 1 31.4273 40.2545 31.3041 -0.498474 -2.61704 2.35245 -0.0736684 -0.168679 0.223561
205 2 20.265 58.7418 23.8435 1.64815 1.25557 1.24157 -0.715134 0.3679 -0.23848
206 2 4.20283 34.6769 3.79209 0.597088 1.21977 0.488051 0.430386 -0.498351 0.186937
207 2 13.3367 51.6949 20.3642 1.30299 -4.44484 -1.83791 0.127294 0.059039 0.396699
208 2 53.4765 33.1577 12.8199 -0.523575 2.60187 -1.90315 0.0872977 -0.444191 0.320262
209 1 19.8974 11.3832 57.2293 -0.00450404 -0.0987626 1.37692 0.402673 0.0163621 0.315537
210 2 2.79867 2.399 50.6812 0.612556 -0.234572 -1.03048 -0.642801 0.381549 -0.488765
211 2 34.3026 16.5979 18.1605 0.120636 0.866076 -2.16667 0.704032 -0.348718 0.159924
212 1 57.3599 31.2232 30.7086 -2.06918 0.356146 -1.86703 -0.0302278 0.346674 0.075938
213 2 26.3784 14.9811 28.5081 0.0206081 -1.28871 -2.38033 0.439624 -0.441005 -0.271128
214 1 40.7771 42.6614 26.2965 0.577097 2.29517 0.544111 0.140378 -0.241846 -0.227683
215 2 51.8582 20.9003 25.6427 -0.50686 0.431559 2.82832 -0.491955 -0.657789 0.277357
216 2 14.8276 49.6984 22.5019 -1.71994 -2.24586 -1.21679 -0.0727186 0.086926 0.0892102
217 1 38.3618 39.9214 23.5685 1.70157 0.859907 5.36249 -0.10859 0.472789 -0.375356
218 2 55.4586 20.8345 56.4458 1.21546 -0.131492 -1.25262 -0.80565 -0.140074 -0.232814
219 1 49.8287 28.2671 27.5873 1.05309 -2.55894 -0.592505 -0.390383 0.622407 0.363001
220 1 41.0651 24.5973 45.2351 -2.03668 -3.31368 2.56869 0.150446 0.11716 0.00721007
221 1 27.6062 49.8939 41.1244 -0.85954 1.11999 -0.341978 -0.502683 -0.124079 -0.262353
222 1 54.094 34.667 4.85454 1.24211 0.995968 -1.4161 0.0959466 0.921324 0.65911
223 1 42.6131 42.9649 6.31915 -1.55612 3.34787 -0.14409 -1.12291 0.125286 -0.0404386
224 1 9.12711 47.1562 4.25259 1.29809 -0.93395 0.727499 -0.0996315 -0.163543 5.81374e-04
225 2 33.7527 24.8782 21.6142 0.98258 0.121597 -1.68651 0.710881 -0.369221 0.596486
226 2 45.4954 7.027 56.566 2.13661 1.02047 0.742684 -0.0130166 0.513531 0.0271972
227 1 8.47061 8.35352 19.6987 -2.76888 0.18437 1.06517 0.0705546 0.15342 -0.425721
228 2 0.407587 44.633 50.1388 0.949232 -1.39214 -2.47937 0.353669 0.121338 0.0739724
229 1 18.7716 10.9158 36.4132 -1.12835 0.628667 -0.127564 -0.0686155 0.346407 -0.382278
230 1 48.7049 45.0919 32.773 0.699347 3.71322 1.23055 -0.336482 0.0890211 -0.281388
231 1 54.5093 25.7137 21.7459 -1.84743 1.55226 -0.498818 -0.312105 0.13385 0.436572
232 2 49.1387 0.688977 30.6808 2.20706 -1.17703 -0.954338 -0.334312 0.277005 0.405246
233 2 33.5338 56.21 7.34688 -0.696873 -0.0303017 -1.07364 -0.100611 0.205489 0.140754
234 2 56.074 54.043 46.5278 -1.07676 2.16701 -0.280481 0.828631 -0.0737085 -0.403595
235 2 54.7961 16.0714 10.8545 0.55909 0.975614 1.44655 0.210699 0.22653 0.00850602
236 2 6.76182 29.3598 33.2311 -0.545776 0.871195 -0.420221 0.3807 0.411978 -0.0341465
237 2 57.2584 14.9341 1.64435 -0.334191 -1.14824 0.384782 -0.237564 0.287586 0.363375
238 2 56.4491 31.4238 43.3464 -1.05368 1.73528 -0.154316 -0.582628 -0.162826 -0.250396
239 1 45.6512 16.7593 34.3887 2.12184 -0.994125 -0.333394 0.401464 -0.814741 0.0128228
240 1 45.1795 13.5047 55.7782 0.715021 0.307728 0.680511 0.338436 0.698046 -0.692895
241 1 52.7823 18.6465 36.5063 -2.95132 -1.21101 1.81375 0.367321 -0.564663 0.389234
242 2 25.8401 26.0874 17.4101 -2.14911 -0.671158 -2.64678 0.178463 0.486904 0.885583
243 1 32.7507 25.3501 39.1949 0.81136 1.35045 1.40053 -0.855829 -0.400235 -0.60397
244 1 4.70689 32.6709 45.2556 1.88359 2.87206 1.40372 0.481361 -0.340979 -0.23886
245 1 17.9835 44.4606 42.6855 1.19893 -1.32937 -1.65106 0.152827 -0.331151 -0.311256
246 2 58.5689 22.7077 13.3002 -0.501505 3.48251 1.23729 -0.0497 -0.528407 0.0627265
247 2 11.5039 8.43199 26.0588 2.77618 1.7945 0.565841 -0.0127942 0.213595 -0.225212
248 1 15.4551 11.749 25.8568 -0.208877 0.59628 1.52116 0.584754 0.676151 -0.426084
249 2 14.0549 21.564 20.531 2.92685 0.392974 -0.518455 -0.0526941 -0.469065 0.583948
250 1 47.998 40.7789 55.3775 2.75271 -2.09636 -0.39601 -0.22772 -0.365505 -0.0659344
251 2 29.6696 31.5641 8.52592 0.344924 1.6673 1.9318 -0.147659 0.52645 0.165152
252 1 2.86777 2.43293 32.7358 -3.34147 -1.42798 4.76382 -0.195158 -0.125169 0.181559
253 2 32.4121 26.9799 16.7541 0.897542 2.38612 0.66241 -0.603367 0.222901 -0.0157223
254 2 34.8986 34.585 7.65641 -2.07468 0.863699 0.915531 -0.408973 -0.450937 0.285162
255 2 30.3146 35.5018 59.2355 -3.92753 0.4043 -1.7906 0.281617 0.833018 0.1766
256 2 48.658 14.7314 14.5564 1.15097 2.79381 1.77065 0.263451 0.119721 -0.0732786
257 2 17.3909 2.1678 43.5401 -1.17303 -1.7093 2.70811 0.245572 0.0195188 0.0398394
258 1 45.8157 3.76716 36.9202 1.4877 -2.68255 4.01783 -0.48655 0.29542 0.748058
259 2 35.7615 31.165 3.27063 0.0169422 0.361786 1.43337 0.51101 -0.433078 -0.844849
260 2 3.56775 19.9453 57.495 -1.62229 -2.01677 -1.44824 -0.378071 0.107602 -0.300749
261 1 52.2524 57.9137 14.8374 0.119036 0.147501 -1.05302 -0.14364 0.0364677 0.112507
262 2 33.5991 23.8556 4.55893 -1.23658 0.80188 0.84562 -0.61149 0.56311 0.192178
263 2 10.1268 10.9513 3.13418 1.44694 -1.81432 1.48209 0.381173 -0.0301313 0.0460377
264 2 24.2589 22.8981 51.6093 1.88355 2.55235 -0.299004 -0.127402 -0.010311 -0.0862212
265 2 16.1882 45.596 10.9852 1.7097 0.100898 -1.34558 0.518191 0.536944 -0.164173
266 2 36.3044 33.3791 40.8486 -0.289344 0.926281 2.58042 0.269539 -0.0435668 1.02558
267 2 32.3261 54.3558 19.8702 -1.06827 1.72145 2.45127 0.275522 -0.81719 -0.316595
268 2 7.82501 17.278 41.817 -0.185176 -1.05445 -1.6249 0.139287 -0.329963 0.121111
269 1 19.6167 52.1149 16.9417 -1.73051 0.808886 0.925555 -0.170954 0.00799354 0.367568
270 1 51.036 21.5912 45.6815 1.46064 3.5972 -0.751336 -0.0980474 0.0163236 -0.904551
271 2 6.37137 0.568998 26.5697 3.21524 -0.732209 1.3109 0.577007 -0.207915 0.11023
272 2 19.9458 23.0497 9.82476 1.15343 -0.951407 -1.32698 -0.0225681 0.258368 0.118772
273 1 7.76598 27.568 11.0227 -0.870055 2.52954 -1.36085 0.352406 0.196754 -0.535627
274 2 2.32822 35.8145 6.26369 -0.557249 -0.859951 -1.71655 0.157972 0.249925 -0.0292552
275 1 33.8708 52.841 38.7263 0.927153 0.244901 4.40904 -0.581489 -0.18227 -0.125928
276 1 18.3561 31.781 43.2658 -2.16952 -1.99796 2.10177 -0.407023 0.109642 0.128715
277 2 34.4825 19.4646 39.7006 1.0248 -0.478939 0.745973 -0.0792097 0.566634 0.503854
278 1 15.5436 22.1663 44.4239 -0.216182 0.34813 2.02961 0.0189228 0.987501 -0.165877
279 2 10.7541 1.2275 53.7917 0.302184 -1.80746 -1.3694 0.0219014 -0.0188996 -0.305681
280 2 2.57686 59.1116 38.8139 -1.82801 0.0614954 -1.62314 0.0264197 -0.250129 0.170607
281 2 12.044 29.3231 2.26436 1.2327 -0.125134 0.166681 -0.0782391 0.421279 -0.0989156
282 2 32.154 2.86148 12.095 0.742926 0.443209 -0.0416378 -0.335938 0.410152 0.195341
283 1 51.5533 43.2748 2.69182 -2.65443 0.0621686 -2.02447 0.462743 -0.233459 -0.279045
284 2 42.8873 20.5548 35.7053 2.4145 0.441563 -1.4293 0.395936 0.148534 -0.206586
285 1 58.5887 21.228 18.6412 -1.61121 0.61007 -2.78751 1.25968 -0.52848 0.796226
286 1 3.817 52.1443 47.6207 -0.310295 0.721025 0.770315 -0.56079 -0.0458203 0.236799
287 2 23.8053 0.667659 8.93432 -0.0631178 0.461149 2.86608 -0.0195437 -0.177486 -0.200476
288 2 56.7681 30.5122 35.5923 1.41305 -2.83143 1.75485 0.736765 -0.317207 0.194478
289 2 16.0551 53.8575 31.0182 -0.411931 1.84175 1.05523 0.166494 0.337048 0.388541
290 1 55.8773 13.5109 46.2342 0.389343 -2.89381 4.25898 -0.243506 -0.150674 -0.247049
291 2 52.4601 6.65369 55.5753 -0.524718 -0.440368 1.77386 0.183693 -0.0673695 -0.0454267
292 2 38.6854 4.75226 7.84241 1.65594 -0.173062 -0.171575 -0.228545 0.517451 -0.189205
293 2 2.8424 56.089 39.9275 2.85784 -2.9954 -2.21081 -0.230619 0.254624 0.0193142
294 2 6.53252 54.9111 31.7245 1.20954 -2.31422 0.950365 0.0830725 0.354957 -0.588899
295 1 3.983 33.8096 20.8091 1.86514 3.68834 -1.00983 -0.016465 -0.443247 0.275516
296 1 41.3198 2.32308 20.5602 2.19155 0.60615 -0.0325746 0.447747 0.263718 -0.434161
297 2 52.4597 28.5721 27.4173 -2.31472 2.12399 -1.13468 -0.348274 -0.472921 0.170579
298 2 25.9658 51.1888 43.3054 -0.983455 0.753599 -0.335175 0.552488 -0.62786 -0.718701
299 2 46.1205 20.4978 35.0716 -1.18651 2.43522 5.03737 0.0867258 -0.554554 0.512194
300 2 42.432 47.7503 14.9987 -0.27022 0.141514 2.08138 0.125376 -0.218162 0.0184293
301 1 14.5519 47.346 28.0594 -0.457205 1.68723 1.14698 0.42719 0.0101679 -0.18549
302 1 53.3177 13.2514 27.1234 1.47418 0.13591 3.525 -0.700338 0.725189 -0.221411
303 2 10.7649 51.3888 9.87081 -1.24049 -2.10006 -1.7794 0.280092 0.0176629 -0.030729
304 2 3.54162 8.24909 14.0445 1.09977 -2.17021 -1.29466 0.532222 -0.404669 0.384695
305 1 55.6999 41.0503 8.89191 -1.72443 -0.0336391 -0.201695 0.105761 0.0517503 -0.116666
306 1 57.555 17.7781 46.9043 0.536497 1.29207 1.0972 0.733929 0.0401082 0.766258
307 1 8.74291 48.49 53.6856 1.58055 -3.84736 -0.225407 -0.415799 0.037174 -0.292429
308 1 50.6494 39.1871 22.1159 1.33948 2.51313 -0.730775 -0.591592 -0.098165 0.441033
309 1 1.47148 27.7815 18.3097 2.18083 3.80779 -3.91788 0.122474 0.191329 -0.107953
310 1 27.9947 40.6339 6.54541 0.774298 -0.689537 1.9736 0.264275 -0.633516 0.156447
311 1 4.27226 56.6348 32.5565 0.638758 -3.08082 -2.92299 -0.0157452 -0.154712 -0.0318055
312 2 5.68253 30.6448 50.6769 -0.239078 -1.36384 -1.4425 -0.376928 -0.33166 -0.675943
313 2 9.77628 36.708 6.69863 -3.26604 1.40128 -1.95737 -0.357151 -0.169068 -0.163722
314 1 28.1985 56.2993 8.5756 1.21412 -1.87319 4.69933 -0.4545 0.470438 -0.180621
315 1 4.58316 52.8228 15.629 0.530932 -0.587317 0.800462 0.0947387 -0.00428335 -0.0067037
316 1 6.72016 3.28021 37.4647 -0.556827 -0.595387 -0.468698 0.18046 0.27156 -0.47377
317 2 30.0013 49.3872 9.40386 1.539 0.369897 -2.36027 0.120637 -0.786298 -0.452222
318 2 58.5662 50.2677 9.05798 -0.339499 -2.02358 1.26905 -0.281256 0.749236 -0.600278
319 2 47.4936 5.42949 13.2555 2.33361 -2.08547 1.32929 0.51321 -0.205203 -0.00344666
320 1 8.34616 53.5688 5.36425 -0.511681 -5.12922 2.31343 0.300995 0.288604 0.397337
321 2 23.1298 57.0404 47.4946 2.33392 -0.747562 0.559641 0.31187 -0.705833 -0.0918997
322 1 10.3531 31.4124 53.1878 -0.425526 -0.624084 1.82188 -0.204597 0.125026 0.479469
323 1 38.6563 34.3422 13.9758 2.07604 -2.3041 -2.45163 -0.122205 -0.4498 0.372435
324 2 57.4788 13.2214 4.91484 1.47519 0.516096 -2.31625 0.373885 0.197048 -0.2535
325 1 17.722 3.95362 48.9194 0.123694 -1.45331 0.913465 0.0904303 -0.0910354 0.174511
326 2 26.7952 2.40719 57.3922 -1.09785 0.723927 -1.39773 -0.00324696 -0.0412406 -0.119048
327 2 27.0279 40.8665 21.9218 -1.92572 -0.976465 -1.91085 0.0156411 0.386998 0.0728696
328 2 32.7559 31.9339 31.6076 1.10135 4.25839 1.23547 0.0746646 -0.300001 0.159918
329 2 39.5312 3.98953 50.7092 -3.39466 -1.17122 0.629724 -0.332526 -0.0568282 0.246909
330 2 48.7663 52.6636 7.05526 -0.613606 -2.12904 0.69476 -0.406162 0.167151 0.169175
331 2 36.3149 16.492 24.4511 0.426332 1.82286 2.27548 0.727588 1.14756 -0.706492
332 2 2.45755 17.9416 34.099 -0.83621 1.49983 1.04832 0.200106 -0.122897 -0.415665
333 2 47.9512 2.74821 11.4356 -1.15082 0.141878 3.11714 -0.37636 0.140563 -0.383682
334 1 55.7054 12.7854 2.34846 3.39041 -1.46648 -2.39305 -0.181164 -0.150506 -0.0542684
335 2 33.0855 55.6457 50.3694 -0.684472 -0.996276 -1.49824 0.187102 0.231044 0.438728
336 2 17.8822 13.0808 34.8067 1.44898 -0.795725 0.150883 -0.00316563 0.33456 -0.170485
337 1 8.6935 4.10459 4.02812 2.67288 3.17649 0.0551263 0.501855 -0.0485209 0.381465
338 1 11.2241 46.1177 28.2873 3.13434 0.761161 0.020778 0.344146 0.456126 -0.0482407
339 2 11.7451 24.4775 51.9457 2.08963 0.0235495 0.0960317 0.459059 0.15062 0.527738
340 1 30.4321 42.4461 57.2048 2.54884 -0.224235 1.23861 0.429789 0.0483202 0.307863
341 2 57.8272 32.2573 53.6784 -0.191152 -0.882051 0.886895 0.0548463 0.318103 0.0134202
342 1 20.4018 29.2311 0.0978644 -0.56637 1.75534 1.47166 0.334285 -0.269859 -0.137118
343 1 54.1446 18.763 57.1462 -0.681636 -0.332588 0.195018 0.166225 -0.1918 0.0835146
344 1 20.3165 25.1822 58.3512 3.37952 -1.49616 -0.0145078 -0.400349 -0.557976 0.0627037
345 1 44.3043 32.1634 23.5741 1.20157 -2.50705 3.60326 -0.322452 0.31641 0.293622
346 1 50.6845 2.99455 30.7472 -1.41704 2.954 -0.423012 -0.0654007 0.0637363 -1.37035e-04
347 2 53.6304 43.1531 0.382648 -2.50288 0.0484328 0.311981 -0.435618 -0.0457154 -0.268907
348 2 23.1706 0.302551 28.4902 1.66309 2.39381 -0.0310762 0.197129 0.0626286 -0.0684359